# vtk DataFile Version 2.0
Data set from ImportExport Version 6.5.171.b0b162591
ASCII

DATASET RECTILINEAR_GRID
DIMENSIONS 30 30 30
X_COORDINATES 30 float
-1.250000 1.250000 3.750000 6.250000 8.750000 11.250000 13.750000 16.250000 18.750000 21.250000 23.750000 26.250000 28.750000 31.250000 33.750000 36.250000 38.750000 41.250000 43.750000 46.250000 48.750000 
51.250000 53.750000 56.250000 58.750000 61.250000 63.750000 66.250000 68.750000 71.250000 
Y_COORDINATES 30 float
-1.250000 1.250000 3.750000 6.250000 8.750000 11.250000 13.750000 16.250000 18.750000 21.250000 23.750000 26.250000 28.750000 31.250000 33.750000 36.250000 38.750000 41.250000 43.750000 46.250000 48.750000 
51.250000 53.750000 56.250000 58.750000 61.250000 63.750000 66.250000 68.750000 71.250000 
Z_COORDINATES 30 float
-1.250000 1.250000 3.750000 6.250000 8.750000 11.250000 13.750000 16.250000 18.750000 21.250000 23.750000 26.250000 28.750000 31.250000 33.750000 36.250000 38.750000 41.250000 43.750000 46.250000 48.750000 
51.250000 53.750000 56.250000 58.750000 61.250000 63.750000 66.250000 68.750000 71.250000 
CELL_DATA 24389
SCALARS FeatureIds int 1
LOOKUP_TABLE default
 47 47 47 47 47 140 140 140 140 140 140 219 219 219 219 208 208 208 208 208
 40 40 40 81 81 81 81 81 47 47 47 47 47 47 140 140 140 140 140 219
 219 219 219 219 208 208 208 208 208 40 40 40 81 81 81 81 81 47 47 47
 47 47 47 140 140 140 140 140 219 219 219 219 219 219 208 208 208 208 40 40
 40 81 81 81 81 81 47 47 47 47 47 47 140 140 140 140 140 219 219 219
 219 197 197 197 158 208 208 40 40 32 32 81 81 81 81 47 47 47 47 47
 222 140 140 140 140 123 123 219 219 197 197 197 197 158 158 158 158 32 32 32
 32 81 81 81 31 65 65 65 65 222 222 123 123 123 123 123 123 123 197 197
 197 197 158 158 158 158 32 32 32 211 211 31 31 31 65 65 65 65 222 222
 222 123 123 123 123 123 123 197 197 197 197 158 158 158 158 205 205 211 211 211
 31 31 31 65 65 65 86 86 86 86 123 123 123 123 123 123 197 197 197 197
 158 158 158 158 205 205 205 211 211 31 31 31 65 65 65 86 86 86 86 123
 123 123 123 123 123 230 230 230 230 230 158 158 205 205 205 205 205 211 31 31
 31 65 65 203 86 86 86 86 86 123 123 123 123 123 230 230 230 230 230 173
 235 205 205 205 205 205 205 31 31 31 203 203 203 203 86 86 86 86 123 123
 185 185 185 230 230 230 230 173 173 235 143 143 205 205 205 205 31 31 31 203
 203 203 203 203 86 86 86 86 185 185 185 185 230 230 173 173 173 173 235 235
 143 143 205 205 205 31 31 31 203 203 203 203 203 203 86 86 185 185 185 185
 185 185 230 173 173 173 173 235 235 143 143 205 205 205 17 17 31 203 203 203
 203 203 203 86 16 80 80 80 80 185 185 230 173 173 173 173 235 235 143 143
 17 17 17 17 17 17 203 203 203 203 203 203 16 16 80 80 80 80 80 71
 71 19 19 19 19 146 146 146 146 17 17 17 17 17 17 200 200 200 200 203
 16 16 16 80 80 80 71 71 71 71 19 19 19 19 146 146 146 146 17 17
 17 17 17 67 200 200 200 223 223 223 223 226 226 226 71 71 71 71 71 19
 19 19 19 19 146 146 146 17 17 17 17 67 67 200 200 223 223 223 223 223
 226 226 226 71 71 71 71 19 19 19 19 19 19 29 29 146 17 17 17 67
 67 67 223 223 223 223 223 223 223 226 226 226 226 71 71 71 71 19 19 19
 214 214 29 29 29 29 17 17 67 67 67 223 223 223 223 223 223 223 226 226
 226 226 226 226 71 19 19 19 214 214 214 29 29 29 188 188 152 152 152 152
 206 206 206 206 223 206 206 226 226 226 226 226 226 226 157 19 214 214 214 214
 188 188 188 188 188 188 152 152 152 206 206 206 206 206 206 206 206 226 226 226
 226 226 157 157 157 157 214 214 188 188 188 188 188 188 188 152 152 152 206 206
 206 206 206 206 206 206 226 226 226 226 157 157 157 157 157 111 111 188 188 188
 188 188 188 188 162 162 152 69 69 206 206 206 206 206 206 226 117 88 88 88
 157 157 157 157 111 111 111 188 188 188 188 162 162 162 162 162 69 69 69 69
 69 206 206 206 117 117 88 88 88 88 157 157 102 102 111 111 188 188 188 162
 162 162 162 162 162 69 69 69 69 69 69 210 117 117 117 88 88 88 88 157
 102 102 102 102 102 188 188 188 162 162 162 162 162 162 69 69 69 69 69 69
 210 117 117 117 88 88 88 88 88 102 102 102 102 102 102 188 162 162 162 162
 162 162 162 69 69 69 69 69 69 140 140 117 117 88 88 88 88 88 102 102
 102 102 102 40 40 162 162 162 162 162 162 162 47 47 69 69 69 140 140 140
 140 140 88 88 88 88 88 208 208 208 208 40 40 40 40 81 81 81 81 81
 81 47 47 47 47 140 140 140 140 140 140 219 219 219 219 219 208 208 208 208
 208 40 40 81 81 81 81 81 81 81 47 47 47 47 140 140 140 140 140 140
 219 219 219 219 219 208 208 208 208 208 40 40 81 81 81 81 81 81 81 47
 47 47 47 140 140 140 140 140 140 219 219 219 219 219 219 208 208 208 208 40
 32 32 81 81 81 81 81 81 47 47 47 47 140 140 140 140 140 140 219 219
 219 219 219 197 197 208 208 208 208 32 32 32 81 81 81 81 81 65 65 47
 65 86 140 140 140 140 140 219 219 219 197 197 197 197 197 158 158 32 32 32
 32 32 81 81 81 31 65 65 65 65 86 86 123 123 123 123 123 123 123 197
 197 197 197 197 158 158 158 32 32 32 32 31 31 31 31 65 65 65 65 86
 86 123 123 123 123 123 123 123 197 197 197 197 197 158 158 158 32 32 32 135
 31 31 31 31 65 65 65 65 86 86 86 123 123 123 123 123 123 197 197 197
 197 197 158 158 205 205 205 205 205 135 31 31 31 65 65 65 86 86 86 86
 123 123 123 123 123 159 159 230 230 230 230 230 239 205 205 205 205 205 205 31
 31 31 65 65 203 86 86 86 86 86 123 123 123 123 159 159 230 230 230 230
 173 239 239 205 205 205 205 205 31 31 31 203 203 203 203 86 86 86 86 123
 182 182 182 182 159 230 230 173 173 173 239 239 205 205 205 205 205 31 31 31
 203 203 203 203 203 86 86 86 86 182 182 182 182 182 230 173 173 173 173 239
 239 239 205 205 205 205 31 31 31 203 203 203 203 203 203 86 86 182 182 182
 182 182 182 230 173 173 173 173 239 239 239 143 205 205 17 17 17 31 203 203
 203 203 203 203 86 16 16 182 182 182 182 182 182 173 173 173 173 239 239 239
 146 17 17 17 17 17 17 200 200 200 203 203 16 16 16 16 16 80 80 71
 71 71 19 19 19 19 146 146 146 146 17 17 17 17 17 17 200 200 200 200
 200 16 16 16 16 16 71 71 71 71 71 19 19 19 19 146 146 146 146 146
 17 17 17 17 17 200 200 200 200 223 223 223 16 16 16 71 71 71 71 19
 19 19 19 19 19 146 146 146 146 17 17 17 17 67 200 200 200 223 223 223
 223 223 226 226 71 71 71 71 19 19 19 19 19 19 29 29 29 29 17 17
 17 17 67 62 200 223 223 223 223 223 223 226 226 226 71 71 71 19 19 19
 19 19 19 29 29 29 29 188 17 67 67 67 62 223 223 223 223 223 223 223
 226 226 226 226 226 71 19 19 19 19 214 214 29 29 29 188 188 188 152 152
 152 62 223 223 223 223 223 223 226 226 226 226 226 226 226 157 19 214 214 214
 214 188 188 188 188 188 188 152 152 152 62 206 206 206 206 206 206 206 226 226
 226 226 226 157 157 157 111 111 214 188 188 188 188 188 188 188 152 152 152 69
 69 206 206 206 206 206 206 226 226 226 88 157 157 157 157 111 111 111 188 188
 188 188 188 188 188 162 162 162 69 69 69 206 206 206 206 206 117 117 88 88
 88 157 157 157 111 111 111 111 188 188 188 188 162 162 162 162 162 69 69 69
 69 69 206 42 117 117 117 88 88 88 88 157 157 111 111 102 102 188 188 188
 162 162 162 162 162 162 69 69 69 69 69 69 210 117 117 117 88 88 88 88
 157 102 102 102 102 102 188 188 188 162 162 162 162 162 162 69 69 69 69 69
 210 210 210 117 117 88 88 88 88 157 102 102 102 102 102 102 188 162 162 162
 162 162 162 162 69 69 69 69 69 210 210 210 210 117 88 88 88 88 157 102
 102 102 102 102 102 40 162 162 162 162 162 162 162 69 69 69 69 69 140 140
 140 210 210 88 88 88 219 219 208 208 208 208 208 40 40 81 81 81 81 81
 81 81 47 47 47 47 140 140 140 140 140 140 219 219 219 219 219 208 208 208
 208 208 208 40 81 81 81 81 81 81 81 47 47 47 47 140 140 140 140 140
 140 219 219 219 219 219 219 208 208 208 208 208 40 81 81 81 81 81 81 81
 47 47 47 47 140 140 140 140 140 140 219 219 219 219 219 219 208 208 208 208
 208 32 32 32 81 81 81 81 81 47 47 150 150 150 140 140 140 140 140 219
 219 219 219 219 197 197 208 208 208 32 32 32 32 32 81 81 81 81 65 65
 150 150 150 225 140 140 140 123 219 219 219 219 197 197 197 197 208 208 32 32
 32 32 32 81 81 81 31 65 65 65 150 150 232 123 123 123 123 123 123 219
 197 197 197 197 197 158 158 32 32 32 32 32 135 31 31 31 65 65 65 65
 232 232 232 123 123 123 123 123 123 197 197 197 197 197 197 76 76 126 126 126
 135 135 31 31 31 65 65 65 65 232 232 232 123 123 123 123 123 159 159 159
 197 197 197 197 76 76 126 126 126 135 135 135 31 31 65 65 65 86 86 86
 86 123 123 123 123 123 159 159 159 230 230 230 230 239 205 205 205 205 205 135
 135 31 31 65 65 203 86 86 86 86 86 123 123 123 182 159 159 159 230 230
 230 239 239 239 205 205 205 205 205 135 31 31 203 203 203 203 86 86 86 86
 123 182 182 182 182 159 159 230 230 173 239 239 239 239 205 205 205 205 135 31
 31 203 203 203 203 203 86 86 86 182 182 182 182 182 182 159 173 173 173 239
 239 239 239 205 205 205 205 135 31 31 203 203 203 203 203 86 86 86 182 182
 182 182 182 182 159 173 173 173 239 239 239 239 205 205 205 17 17 137 137 203
 203 203 203 203 16 16 16 16 182 182 182 182 182 182 173 173 173 239 239 239
 239 239 17 17 17 17 137 137 200 200 200 200 200 16 16 16 16 16 16 182
 182 182 182 19 19 19 239 146 146 146 146 17 17 17 17 137 137 200 200 200
 200 200 16 16 16 16 16 16 71 71 71 19 19 19 19 19 146 146 146 146
 146 17 17 17 137 137 200 200 200 200 200 16 16 16 16 16 71 71 71 71
 71 19 19 19 19 19 146 146 146 146 17 17 137 137 137 200 200 200 200 223
 223 223 16 16 16 71 71 71 71 19 19 19 19 19 19 29 29 29 137 137
 137 137 137 137 62 200 200 223 223 223 223 223 16 16 71 71 71 71 19 19
 19 19 19 19 29 29 29 29 137 137 137 137 137 62 62 223 223 223 223 223
 223 226 226 226 226 71 71 218 19 19 19 19 188 29 29 29 188 188 62 62
 62 62 62 62 223 223 223 223 223 223 226 226 226 226 226 218 218 218 218 214
 214 188 188 188 188 188 188 188 62 62 62 62 62 223 223 206 206 42 42 226
 226 226 226 136 136 136 136 111 111 188 188 188 188 188 188 188 188 62 62 62
 62 69 206 206 206 42 42 42 42 97 88 88 136 136 136 136 111 111 111 188
 188 188 188 188 188 188 162 162 62 198 69 69 42 42 42 42 42 42 117 88
 88 88 136 157 157 111 111 111 188 188 188 188 188 162 162 162 162 162 198 69
 69 69 42 42 42 42 117 117 88 88 88 88 157 157 111 111 102 102 188 188
 188 162 162 162 162 162 162 69 69 69 69 69 210 210 210 117 117 88 88 88
 88 157 102 102 102 102 102 188 188 188 162 162 162 162 162 162 69 69 69 69
 69 210 210 210 210 117 88 88 88 88 157 102 102 102 102 102 102 188 162 162
 162 162 162 162 162 69 69 69 69 69 210 210 210 210 210 88 88 88 88 157
 102 102 102 102 102 102 40 162 162 162 162 162 162 162 69 69 69 69 210 210
 210 210 210 210 88 88 219 219 219 208 208 208 208 208 40 40 81 81 81 81
 81 81 81 47 47 47 210 210 210 210 210 210 210 219 219 219 219 154 154 154
 208 208 77 77 77 81 81 81 81 81 81 81 47 47 47 150 140 140 140 140
 140 140 219 219 219 219 219 154 154 208 208 77 77 77 77 81 81 81 81 81
 81 183 150 150 150 150 140 140 140 140 140 219 219 219 219 219 154 154 208 77
 77 77 32 32 32 81 81 81 81 81 150 150 150 150 150 225 140 140 140 140
 219 219 219 219 219 154 154 208 77 77 77 32 32 32 32 81 81 81 183 150
 150 150 150 150 225 225 225 140 123 219 219 219 219 197 197 197 197 197 77 32
 32 32 32 32 32 81 183 183 150 150 150 150 150 225 225 123 123 123 123 123
 219 197 197 197 197 197 197 76 76 32 32 32 135 135 135 135 31 65 65 150
 150 232 232 232 123 123 123 123 123 123 197 197 197 197 197 197 76 76 76 126
 126 135 135 135 135 31 65 65 65 232 232 232 232 123 123 123 123 123 159 159
 159 197 197 197 76 76 76 76 126 126 135 135 135 135 31 65 65 65 232 232
 232 232 123 123 123 123 159 159 159 159 159 230 230 239 239 76 76 126 126 135
 135 135 135 31 252 252 252 252 86 86 86 86 123 123 182 182 159 159 159 159
 230 239 239 239 239 239 205 205 205 135 135 135 31 252 252 252 252 252 86 86
 86 182 182 182 182 182 159 159 159 230 239 239 239 239 239 205 205 205 205 135
 135 31 252 252 252 252 252 252 86 86 182 182 182 182 182 182 159 159 173 239
 239 239 239 239 205 205 205 205 135 135 31 252 252 252 252 252 252 252 182 182
 182 182 182 182 182 159 159 173 239 239 239 239 239 239 205 205 137 137 137 137
 200 200 200 252 252 252 16 16 16 182 182 182 182 182 182 159 239 239 239 239
 239 239 239 137 137 137 137 137 137 200 200 200 200 200 16 16 16 16 16 16
 182 182 182 182 66 180 239 239 239 146 146 146 137 137 137 137 137 137 200 200
 200 200 200 16 16 16 16 16 16 71 71 71 66 66 180 180 180 146 146 146
 146 146 137 137 137 137 137 200 200 200 200 200 16 16 16 16 16 16 71 71
 71 66 66 180 180 180 180 146 146 146 137 137 137 137 137 137 200 200 200 200
 200 16 16 16 16 16 16 71 71 71 180 180 180 180 180 180 180 29 29 137
 137 137 137 137 137 62 200 200 200 223 223 223 16 16 16 16 71 71 71 180
 180 180 180 180 180 29 29 29 137 137 137 137 62 62 62 62 200 223 223 223
 223 223 16 16 16 97 218 218 218 218 180 180 180 188 188 188 188 188 62 62
 62 62 62 62 62 223 223 223 223 223 42 97 97 97 97 218 218 218 218 218
 218 188 188 188 188 188 188 188 62 62 62 62 62 62 223 223 223 42 42 42
 97 97 97 97 218 218 218 218 218 218 188 188 188 188 188 188 188 62 62 62
 62 62 198 198 42 42 42 42 42 42 97 97 97 136 136 136 136 136 111 111
 188 188 188 188 188 23 23 23 23 62 198 198 198 42 42 42 42 42 42 42
 88 88 64 136 136 136 136 111 111 188 188 188 188 188 23 23 23 23 23 198
 198 198 42 42 42 42 42 42 117 88 88 64 64 136 136 136 102 102 102 188
 188 188 162 162 162 162 162 198 198 198 198 198 42 42 210 210 210 117 88 88
 64 64 64 136 102 102 102 102 102 188 204 162 162 162 162 162 162 198 198 198
 198 210 210 210 210 210 210 88 88 64 64 64 102 102 102 102 102 102 204 204
 162 162 162 162 162 198 198 198 198 69 210 210 210 210 210 210 88 88 64 64
 64 154 102 102 102 77 77 204 204 162 162 162 162 162 198 198 198 198 69 210
 210 210 210 210 210 210 219 219 219 154 154 154 208 208 77 77 77 81 81 81
 81 81 81 81 175 175 224 224 210 210 210 210 210 210 219 219 219 154 154 154
 154 154 77 77 77 77 77 81 81 81 81 81 81 175 175 175 150 150 140 140
 140 140 140 219 219 219 154 154 154 154 154 77 77 77 77 77 81 81 81 81
 183 183 183 150 150 150 150 225 140 140 140 140 219 219 219 154 154 154 154 154
 77 77 77 77 32 32 81 81 183 183 183 150 150 150 150 150 225 225 225 140
 187 219 219 219 154 154 154 154 154 77 77 77 77 32 32 32 81 183 183 183
 150 150 150 150 150 225 225 225 225 225 187 219 219 219 154 154 154 197 77 77
 77 32 32 32 32 32 183 183 183 150 150 150 150 150 225 225 225 225 123 123
 123 219 197 197 197 197 197 197 76 76 76 76 126 135 135 135 183 183 65 150
 150 150 150 225 225 225 123 123 123 123 159 159 197 197 197 197 76 76 76 76
 76 126 135 135 135 135 31 65 150 150 150 232 232 232 232 123 123 123 123 159
 159 159 159 197 197 76 76 76 76 76 126 135 135 135 135 31 252 252 252 252
 232 232 232 232 123 123 123 159 159 159 159 159 230 239 76 76 76 76 76 126
 135 135 135 135 31 252 252 252 252 252 252 86 86 123 182 182 182 159 159 159
 159 230 239 239 239 239 76 156 156 156 135 135 135 31 252 252 252 252 252 252
 86 86 182 182 182 182 182 159 159 159 230 239 239 239 239 239 156 156 156 156
 135 135 2 252 252 252 252 252 252 252 252 182 182 182 182 182 182 159 159 173
 239 239 239 239 239 156 205 156 251 251 137 2 252 252 252 252 252 252 252 252
 182 182 182 182 182 182 159 159 239 239 239 239 239 239 239 205 251 251 137 137
 137 200 200 200 252 252 252 16 16 16 16 182 182 182 182 182 159 239 239 239
 239 239 239 239 137 137 137 137 137 137 200 200 200 200 200 16 16 16 16 16
 16 182 182 182 66 66 66 180 239 239 239 146 146 137 137 137 137 137 137 200
 200 200 200 200 16 16 16 16 16 16 16 228 66 66 66 66 180 180 180 146
 146 146 137 137 137 137 137 137 200 200 200 200 200 16 16 16 16 16 16 16
 228 66 66 66 66 180 180 180 180 146 137 137 137 137 137 137 137 62 200 200
 200 200 16 16 16 16 16 16 16 228 66 66 66 66 180 180 180 180 29 137
 137 137 137 137 137 137 62 62 200 200 200 16 16 16 16 16 16 228 228 66
 66 66 180 180 180 180 180 29 29 137 137 137 62 62 62 62 62 200 223 223
 223 16 16 16 97 97 97 218 218 218 218 218 180 180 180 188 188 188 188 62
 62 62 62 62 62 62 62 223 223 42 42 97 97 97 97 97 97 218 218 218
 218 218 180 188 188 188 188 188 62 62 62 62 62 62 62 62 42 42 42 42
 42 97 97 97 97 218 218 218 218 218 218 188 188 188 188 188 188 23 23 62
 62 62 62 198 198 42 42 42 42 42 97 97 97 97 218 218 218 218 218 218
 238 188 188 188 188 23 23 23 23 23 62 198 198 198 42 42 42 42 42 42
 42 97 64 64 64 136 136 136 136 238 238 188 188 188 23 23 23 23 23 23
 198 198 198 198 42 42 42 42 42 42 42 64 64 64 64 136 136 238 238 238
 238 188 204 204 23 23 23 23 198 198 198 198 198 42 42 42 42 42 42 88
 64 64 64 64 64 136 238 238 238 238 204 204 204 204 23 23 23 198 198 198
 198 198 42 210 210 210 210 210 210 64 64 64 64 64 102 238 238 238 212 204
 204 204 204 204 204 198 198 198 198 198 198 210 210 210 210 210 210 210 64 64
 64 64 154 154 154 77 77 77 204 204 204 204 204 204 198 198 198 198 198 224
 210 210 210 210 210 210 210 219 219 154 154 154 154 154 77 77 77 77 204 81
 81 81 81 81 198 175 175 224 224 224 210 210 210 210 210 243 243 243 154 154
 154 154 154 77 77 77 77 77 81 81 183 183 183 183 175 175 175 150 150 225
 210 210 187 187 243 243 243 154 154 154 154 154 77 77 77 77 77 81 81 183
 183 183 183 183 175 150 150 150 225 225 225 187 187 187 243 243 154 154 154 154
 154 77 77 77 77 77 32 183 183 183 183 183 183 150 150 150 150 225 225 225
 187 187 187 187 243 154 154 154 154 154 77 77 77 77 32 32 183 183 183 183
 183 183 150 150 150 150 225 225 225 225 187 187 187 243 154 154 154 154 154 77
 77 77 77 32 32 183 183 183 183 183 183 150 150 150 150 225 225 225 225 187
 187 155 155 154 154 154 154 154 76 76 76 76 76 76 135 183 183 183 183 183
 150 150 150 150 225 225 225 225 123 123 155 155 159 197 197 199 199 76 76 76
 76 76 76 135 135 135 170 170 150 150 150 150 150 225 225 225 123 123 123 155
 159 159 159 159 199 199 199 76 76 76 76 76 135 135 135 170 170 252 252 252
 252 252 232 232 232 123 123 123 159 159 159 159 159 199 199 199 76 76 76 76
 156 156 135 170 170 170 252 252 252 252 252 252 86 131 131 182 182 182 159 159
 159 159 199 199 199 239 76 76 156 156 156 156 170 170 170 252 252 252 252 252
 252 252 131 131 182 182 182 182 159 159 159 199 199 239 239 239 239 156 156 156
 156 251 170 2 2 252 252 217 252 252 252 131 131 182 182 182 182 182 159 159
 199 239 239 239 239 239 156 251 251 251 251 251 2 2 252 252 252 252 252 252
 131 131 182 182 182 182 182 182 159 239 239 239 239 239 239 239 251 251 251 251
 137 2 200 200 252 252 252 252 16 16 16 16 182 182 182 182 182 66 66 239
 239 239 239 239 251 251 251 251 137 137 137 200 200 200 200 200 16 16 16 16
 16 16 182 182 228 66 66 66 66 239 239 239 146 233 241 241 137 137 137 137
 200 200 200 200 200 16 16 16 16 16 16 228 228 228 66 66 66 66 180 180
 146 233 233 137 137 137 137 137 137 200 200 200 200 200 16 16 16 16 16 16
 228 228 228 66 66 66 66 180 180 180 120 137 137 137 137 137 137 137 62 200
 200 8 8 16 16 16 16 16 16 228 228 228 66 66 66 66 180 180 120 120
 120 137 137 137 137 62 62 62 62 8 8 8 8 16 16 16 16 16 228 228
 228 66 66 66 66 180 180 120 120 120 62 62 62 62 62 62 62 62 8 8
 8 8 16 16 16 97 97 105 105 218 218 218 218 218 180 120 120 120 188 62
 62 62 62 62 62 62 62 62 8 8 8 16 97 97 97 97 97 218 218 218
 218 218 218 218 188 188 188 188 62 62 62 62 62 62 62 62 62 42 42 42
 42 42 97 97 97 97 218 218 218 218 218 218 218 238 188 188 188 23 23 23
 62 62 62 62 198 198 42 42 42 42 42 97 97 97 97 218 218 218 218 218
 218 238 238 238 188 188 23 23 23 23 23 62 198 198 198 198 42 42 42 42
 42 42 97 64 64 64 218 218 218 238 238 238 238 238 204 23 23 23 23 23
 62 198 198 198 198 42 42 42 42 42 42 42 64 64 64 64 64 238 238 238
 238 238 204 204 204 23 23 23 23 198 198 198 198 198 42 42 42 42 42 42
 42 64 64 64 64 64 238 238 238 238 238 204 204 204 204 204 23 23 198 198
 198 198 198 42 42 42 210 210 210 64 64 64 64 64 64 238 238 238 238 212
 204 204 204 204 204 204 204 198 198 198 198 198 210 210 210 210 210 210 210 64
 64 64 64 154 154 154 212 212 212 204 204 204 204 204 204 204 198 198 198 224
 224 224 210 210 210 210 210 210 64 64 154 154 154 154 154 77 77 77 77 204
 204 204 204 204 204 198 175 175 224 224 224 224 210 210 187 187 187 243 243 243
 154 154 154 154 77 77 77 77 77 38 38 183 183 183 183 175 175 175 224 224
 224 187 187 187 187 187 243 243 243 154 154 154 154 77 77 77 77 77 38 183
 183 183 183 183 183 175 175 150 150 225 225 187 187 187 187 243 243 243 154 154
 154 154 77 77 77 77 77 183 183 183 183 183 183 183 183 150 150 150 225 225
 225 187 187 187 187 243 243 154 154 154 154 77 77 77 77 77 183 183 183 183
 183 183 183 150 150 150 150 225 225 225 187 187 187 187 243 243 154 154 154 154
 77 77 77 76 76 183 183 183 183 183 183 183 150 150 150 150 225 225 225 187
 187 187 155 155 155 154 154 154 191 30 30 76 76 76 76 183 183 183 183 183
 170 150 150 150 150 225 225 225 225 155 155 155 155 155 155 199 199 199 30 30
 76 76 76 76 135 170 170 170 170 170 150 150 150 150 225 225 225 123 155 155
 155 155 155 159 199 199 199 199 30 76 76 76 76 135 170 170 170 170 170 150
 252 252 150 225 131 131 131 155 155 155 159 159 159 199 199 199 199 30 76 76
 76 156 156 170 170 170 170 252 252 252 252 252 252 131 131 131 131 182 182 159
 159 159 199 199 199 199 199 76 76 156 156 156 251 170 170 170 2 2 252 252
 252 252 131 131 131 131 182 248 248 159 159 199 199 199 199 199 239 239 156 156
 251 251 251 170 2 2 2 252 252 252 252 131 131 131 131 248 248 248 248 248
 199 199 199 199 199 239 239 156 251 251 251 251 251 2 2 2 252 252 252 252
 131 131 131 248 248 248 248 248 248 199 199 199 239 239 239 239 251 251 251 251
 251 251 2 54 54 54 252 252 252 16 131 131 248 248 248 248 248 248 248 199
 199 239 239 239 233 251 251 251 251 241 241 2 54 54 54 200 252 16 16 16
 16 16 248 248 248 248 248 66 66 66 43 239 233 233 233 241 241 241 241 241
 241 200 200 200 200 16 16 16 16 16 16 16 228 228 228 228 66 66 66 180
 120 233 233 233 241 241 241 241 241 137 200 200 8 8 8 16 16 16 16 16
 228 228 228 228 228 66 66 66 180 120 120 120 233 241 241 241 241 137 137 62
 200 8 8 8 8 16 16 16 16 228 228 228 228 228 66 66 66 180 120 120
 120 120 241 241 241 62 62 62 62 62 8 8 8 8 16 16 16 16 105 105
 228 228 228 66 66 66 180 120 120 120 120 62 62 62 62 62 62 62 62 8
 8 8 8 8 16 97 97 105 105 105 228 218 218 218 218 218 120 120 120 120
 62 62 62 62 62 62 62 62 8 8 8 8 244 244 97 97 97 105 105 218
 218 218 218 218 218 120 120 120 120 62 62 62 62 62 62 62 62 8 8 8
 244 244 244 97 97 97 97 218 218 218 218 218 218 238 238 238 238 171 23 23
 23 62 62 62 62 198 198 42 42 42 244 244 244 97 97 97 218 218 218 218
 218 238 238 238 238 238 23 23 23 23 23 23 62 198 198 198 198 42 42 42
 244 244 244 244 249 249 249 218 218 238 238 238 238 238 238 204 23 23 23 23
 23 23 198 198 198 198 42 42 42 42 244 244 244 249 249 249 249 249 238 238
 238 238 238 204 204 204 204 23 23 23 198 198 198 198 198 42 42 42 42 244
 244 244 249 249 64 64 249 238 238 238 238 238 204 204 204 204 204 23 23 198
 198 198 198 198 42 42 42 42 244 244 64 64 64 64 249 249 238 238 238 212
 212 204 204 204 204 204 204 204 198 198 198 224 224 224 224 210 210 210 210 210
 64 64 64 249 154 154 212 212 212 212 212 204 204 204 204 204 204 198 224 224
 224 224 224 224 210 210 210 210 243 243 243 243 154 154 154 154 212 212 212 212
 204 204 204 204 204 204 198 175 175 224 224 224 224 224 187 187 187 187 243 243
 243 243 154 154 154 77 77 77 138 138 38 38 38 38 183 183 175 175 175 224
 224 224 187 187 187 187 187 243 243 243 243 154 154 154 77 77 77 77 77 38
 38 38 183 183 183 175 175 175 224 224 224 187 187 187 187 187 187 243 243 243
 154 154 154 77 77 77 77 77 38 38 183 183 183 183 183 183 150 150 150 225
 225 187 187 187 187 187 243 243 243 154 154 154 77 77 77 30 30 183 183 183
 183 183 183 183 183 150 150 150 225 225 187 187 187 187 187 187 243 243 154 154
 191 191 191 30 30 30 183 183 183 183 183 183 183 150 150 150 150 225 225 187
 187 187 155 155 155 155 155 154 191 191 191 30 30 30 30 30 183 183 183 183
 183 170 150 150 150 150 225 225 187 187 155 155 155 155 155 155 113 191 191 191
 30 30 30 30 76 170 170 170 170 170 170 150 150 150 150 225 225 187 187 155
 155 155 155 155 155 199 199 199 30 30 30 30 30 76 76 170 170 170 170 170
 170 150 150 150 225 131 131 131 155 155 155 155 155 199 199 199 199 199 30 30
 30 30 156 156 170 170 170 170 2 2 252 252 252 252 131 131 131 131 155 155
 155 155 199 199 199 199 199 199 30 30 30 156 251 251 170 170 170 2 2 2
 252 252 252 131 131 131 131 248 248 248 248 199 199 199 199 199 199 30 30 156
 251 251 251 251 170 2 2 2 2 252 252 252 131 131 131 131 248 248 248 248
 248 199 199 199 199 199 30 30 251 251 251 251 251 251 2 2 2 2 252 252
 252 131 131 131 248 248 248 248 248 248 248 199 199 199 199 239 251 251 251 251
 251 251 251 2 54 54 54 252 252 252 131 131 131 248 248 248 248 248 248 248
 165 199 43 239 233 233 233 251 251 251 241 241 2 54 54 54 200 252 16 16
 16 16 248 248 248 248 248 248 165 165 165 43 43 233 233 233 233 241 241 241
 241 241 54 200 8 8 8 16 16 16 16 16 248 228 228 228 228 165 165 165
 165 120 233 233 233 233 241 241 241 241 241 200 8 8 8 8 8 16 16 16
 16 228 228 228 228 228 165 165 165 165 120 120 233 233 233 241 241 241 241 241
 62 8 8 8 8 8 16 16 16 63 228 228 228 228 228 165 165 165 165 120
 120 120 233 233 241 241 241 62 62 62 8 8 8 8 8 8 16 63 63 105
 105 228 228 165 165 165 165 165 120 120 120 120 233 62 62 62 62 62 62 62
 8 8 8 8 8 63 63 63 105 105 105 228 165 165 165 165 165 120 120 120
 120 171 62 62 62 62 62 62 62 8 8 8 8 244 244 63 63 105 105 105
 218 218 218 218 218 218 120 120 120 171 171 171 62 62 62 62 62 57 57 8
 244 244 244 244 244 97 97 105 105 218 218 218 218 238 238 238 238 171 171 171
 171 62 62 62 62 57 57 57 244 244 244 244 244 244 244 244 105 218 218 218
 218 238 238 238 238 238 238 171 171 23 23 23 23 62 198 198 198 201 201 244
 244 244 244 244 244 249 249 249 249 238 238 238 238 238 238 238 204 204 23 23
 23 23 23 198 198 198 198 201 244 244 244 244 244 244 249 249 249 249 249 238
 238 238 238 238 204 204 204 204 204 23 23 198 198 198 198 198 42 42 244 244
 244 244 244 249 249 249 249 249 238 238 238 238 238 204 204 204 204 204 204 204
 198 198 198 224 224 224 42 244 244 244 244 244 249 249 249 249 249 238 238 212
 212 212 138 204 204 204 204 204 204 198 224 224 224 224 224 224 244 244 244 244
 249 249 249 249 249 249 238 212 212 212 212 138 138 204 204 204 204 204 198 224
 224 224 224 224 224 224 210 210 244 249 249 243 243 243 154 154 212 212 212 212
 138 138 138 204 204 38 38 38 175 175 224 224 224 224 224 187 187 187 187 187
 243 243 243 243 154 154 96 212 138 138 138 38 38 38 38 38 183 175 175 175
 224 224 224 187 187 187 187 187 187 243 243 243 243 154 154 96 96 96 96 138
 38 38 38 38 183 183 183 175 175 224 224 187 187 187 187 187 187 187 243 243
 243 243 154 154 96 96 96 96 38 38 38 38 183 183 183 183 183 150 150 150
 187 187 187 187 187 187 187 243 243 243 243 154 191 191 191 191 30 38 38 38
 183 183 183 183 183 183 150 150 150 225 187 187 187 187 187 187 187 243 243 191
 191 191 191 191 30 30 30 183 183 183 183 183 183 183 183 150 150 150 225 187
 187 187 187 187 155 155 155 113 113 191 191 191 191 30 30 30 30 183 183 183
 183 183 170 150 150 150 150 225 187 187 187 155 155 155 155 155 113 113 191 191
 191 30 30 30 30 30 30 170 170 170 170 170 170 150 150 150 124 124 187 187
 155 155 155 155 155 113 113 199 191 191 30 30 30 30 30 98 170 170 170 170
 170 51 51 168 168 124 124 131 124 155 155 155 155 155 113 113 199 199 199 30
 30 30 30 30 98 170 170 170 170 51 51 51 168 252 252 131 131 131 72 72
 155 155 113 113 199 199 199 199 30 30 30 30 30 251 251 170 170 170 51 51
 51 252 252 252 131 131 131 72 72 248 248 248 199 199 199 199 199 30 30 30
 30 251 251 251 251 170 51 51 51 51 252 252 131 131 131 131 72 248 248 248
 248 248 199 199 199 199 30 30 30 251 251 251 251 251 251 51 51 51 51 252
 252 252 131 131 131 248 248 248 248 248 248 248 199 199 199 189 30 30 251 251
 251 251 251 251 51 54 54 54 252 252 252 131 131 131 248 248 248 248 248 248
 248 165 43 43 189 233 233 233 251 251 241 241 241 51 54 54 54 252 8 16
 16 16 16 248 248 248 248 248 165 165 165 43 43 43 233 233 233 233 241 241
 241 241 241 54 54 8 8 8 8 16 16 16 248 248 248 228 228 165 165 165
 165 43 43 233 233 233 233 241 241 241 241 241 54 8 8 8 8 8 16 16
 16 16 228 228 228 228 165 165 165 165 165 120 120 233 233 233 241 241 241 241
 241 62 8 8 8 8 8 8 16 63 63 63 228 228 228 165 165 165 165 165
 120 120 120 233 233 233 241 241 241 62 62 8 8 8 8 8 8 63 63 63
 63 105 228 228 165 165 165 165 165 120 120 120 120 233 233 62 62 62 62 62
 8 8 8 8 8 8 63 63 63 63 105 105 165 165 165 165 165 165 120 120
 120 120 171 171 62 62 62 62 57 57 57 8 8 8 244 63 63 63 63 105
 105 165 165 165 165 165 165 120 120 120 171 171 171 171 62 62 62 57 57 57
 57 201 244 244 244 244 63 63 105 105 218 218 218 238 238 238 238 238 171 171
 171 171 171 62 62 62 57 57 57 201 201 201 244 244 244 244 244 119 249 218
 218 218 238 238 238 238 238 171 171 171 171 171 23 23 57 57 57 57 201 201
 201 244 244 244 244 244 249 249 249 249 238 238 238 238 238 238 238 171 171 171
 23 23 23 57 198 100 100 201 201 201 244 244 244 244 244 249 249 249 249 238
 238 238 238 238 238 238 204 204 204 204 23 23 198 198 100 100 100 201 244 244
 244 244 244 244 249 249 249 249 249 238 238 238 238 238 138 204 204 204 204 204
 204 198 198 224 224 224 224 244 244 244 244 244 249 249 249 249 249 249 238 238
 238 212 138 138 138 204 204 204 204 204 198 224 224 224 224 224 224 244 244 244
 244 249 249 249 249 249 249 238 212 212 212 138 138 138 138 204 204 38 38 38
 224 224 224 224 224 224 224 244 244 244 243 243 243 243 243 154 154 212 212 212
 138 138 138 138 38 38 38 38 38 139 139 139 224 224 224 224 187 187 187 187
 187 243 243 243 243 154 96 96 96 96 138 138 38 38 38 38 38 139 139 139
 139 139 224 224 187 187 187 187 187 187 243 243 243 243 154 96 96 96 96 96
 96 38 38 38 38 38 139 139 139 139 139 139 187 187 187 187 187 187 187 187
 243 243 243 154 96 96 96 96 96 96 38 38 38 38 183 183 183 139 139 139
 139 187 187 187 187 187 187 187 187 243 243 243 191 191 191 191 96 96 38 38
 38 38 183 183 183 183 183 139 139 150 187 187 187 187 187 187 187 187 243 113
 113 191 191 191 191 191 30 30 98 183 183 183 183 183 183 183 150 150 150 187
 187 187 187 187 187 155 155 155 113 113 191 191 191 191 30 30 30 98 98 52