# vtk DataFile Version 2.0
Data set from ImportExport Version 6.5.171.b0b162591
ASCII

DATASET RECTILINEAR_GRID
DIMENSIONS 30 30 30
X_COORDINATES 30 float
-1.250000 1.250000 3.750000 6.250000 8.750000 11.250000 13.750000 16.250000 18.750000 21.250000 23.750000 26.250000 28.750000 31.250000 33.750000 36.250000 38.750000 41.250000 43.750000 46.250000 48.750000 
51.250000 53.750000 56.250000 58.750000 61.250000 63.750000 66.250000 68.750000 71.250000 
Y_COORDINATES 30 float
-1.250000 1.250000 3.750000 6.250000 8.750000 11.250000 13.750000 16.250000 18.750000 21.250000 23.750000 26.250000 28.750000 31.250000 33.750000 36.250000 38.750000 41.250000 43.750000 46.250000 48.750000 
51.250000 53.750000 56.250000 58.750000 61.250000 63.750000 66.250000 68.750000 71.250000 
Z_COORDINATES 30 float
-1.250000 1.250000 3.750000 6.250000 8.750000 11.250000 13.750000 16.250000 18.750000 21.250000 23.750000 26.250000 28.750000 31.250000 33.750000 36.250000 38.750000 41.250000 43.750000 46.250000 48.750000 
51.250000 53.750000 56.250000 58.750000 61.250000 63.750000 66.250000 68.750000 71.250000 
CELL_DATA 24389
SCALARS FeatureIds int 1
LOOKUP_TABLE default
 139 174 174 195 195 195 195 206 206 206 206 206 206 206 46 42 42 42 42 42
 42 42 42 42 42 139 139 139 139 139 174 174 174 174 174 174 206 206 206 206
 206 46 46 46 46 42 42 42 42 42 42 42 42 100 100 139 139 139 174 174
 174 174 174 174 174 3 3 3 3 46 46 46 46 46 42 42 42 42 42 42
 42 42 100 100 100 139 139 174 174 174 174 174 174 174 3 3 3 3 46 46
 46 46 46 46 240 42 42 42 42 42 100 100 100 100 100 139 186 174 174 174
 174 174 174 3 3 3 46 46 46 46 46 46 46 103 103 103 103 42 244 100
 100 100 100 100 186 186 186 174 59 59 59 155 3 3 102 102 46 46 46 46
 46 46 103 103 103 103 103 244 244 100 100 100 186 186 186 186 59 59 59 59
 155 155 18 102 102 102 46 46 46 46 46 103 103 103 103 103 244 244 100 100
 100 186 186 186 186 59 59 59 59 59 59 18 18 102 102 46 46 46 53 53
 103 103 103 103 103 244 244 100 100 186 186 186 186 59 59 59 59 59 15 15
 18 18 20 20 46 209 209 53 53 103 103 103 103 103 244 244 100 181 181 186
 186 181 181 59 15 15 15 15 15 15 18 20 20 20 20 20 20 20 103 103
 103 103 103 151 151 151 181 181 181 181 181 181 15 15 15 15 15 15 15 129
 20 20 20 20 20 20 20 111 111 111 111 111 151 151 151 55 181 181 181 181
 140 15 15 15 15 15 15 41 129 20 20 20 20 20 20 20 111 111 111 111
 111 151 151 151 55 55 224 181 181 140 15 15 15 15 41 41 41 129 129 20
 20 20 20 20 20 111 111 111 111 111 151 151 151 55 224 224 224 35 35 70
 15 15 15 41 41 41 129 129 20 47 47 47 47 111 111 111 111 111 111 151
 151 151 151 224 224 224 35 35 70 70 70 41 41 41 41 129 129 47 47 47
 47 47 124 111 111 111 111 111 151 151 151 224 224 224 224 35 35 70 70 70
 41 41 41 41 129 228 47 47 47 47 47 124 124 124 111 111 111 96 37 37
 37 37 37 37 35 35 70 70 70 56 56 56 56 56 47 47 47 47 47 124
 124 124 124 124 124 124 96 37 37 37 37 37 37 35 35 70 70 70 56 56
 56 56 56 7 47 47 47 47 124 124 124 124 124 124 124 124 37 37 37 37
 37 37 10 10 10 10 56 56 56 56 56 7 7 7 7 7 124 124 124 124
 124 124 124 124 124 37 37 37 37 37 37 185 10 10 10 10 56 56 56 56
 7 7 7 7 7 124 124 124 124 124 124 124 124 146 146 37 37 37 110 110
 185 185 10 10 171 171 171 56 56 7 7 7 7 7 4 4 4 4 4 4
 4 25 25 146 146 37 185 185 185 185 185 185 171 171 171 171 171 56 7 7
 7 7 7 4 4 4 4 4 4 4 25 25 25 25 185 185 185 185 185 185
 185 171 171 171 171 171 171 7 7 7 7 4 4 4 4 4 4 4 4 25
 25 25 25 25 185 185 185 185 185 185 171 171 171 171 171 66 66 66 66 4
 4 4 4 4 131 131 131 148 148 25 25 25 25 185 185 185 185 185 195 195
 195 195 171 66 66 66 66 66 160 4 173 173 4 131 131 148 148 148 148 25
 25 169 185 185 185 195 195 195 195 195 195 195 206 206 66 66 66 161 161 173
 173 131 131 131 148 148 148 148 148 169 169 169 185 185 195 195 195 195 195 195
 195 206 206 206 206 206 161 161 161 173 131 131 131 148 148 148 148 148 169 169
 169 185 185 195 195 195 195 195 195 195 206 206 206 206 206 212 161 161 161 192
 192 192 148 148 148 148 148 169 169 139 139 139 195 195 195 195 195 195 195 206
 206 206 206 206 212 212 161 161 192 192 192 42 42 42 42 42 42 139 139 139
 139 139 174 195 195 195 195 195 206 206 206 206 206 206 206 206 42 42 42 42
 42 42 42 42 42 42 139 139 139 139 139 174 174 174 174 174 3 3 3 3
 3 206 206 46 46 46 42 42 42 42 42 42 42 42 100 100 139 139 139 139
 174 174 174 174 174 3 3 3 3 3 3 46 46 46 46 42 42 42 42 42
 42 42 42 100 100 100 139 139 174 174 174 174 174 174 3 3 3 3 3 46
 46 46 46 46 240 240 42 42 42 42 42 100 100 100 100 100 139 186 174 174
 174 174 155 3 3 3 3 3 46 46 46 46 46 240 240 240 103 103 42 42
 100 100 100 100 186 186 186 186 59 59 59 155 155 3 3 3 3 46 46 46
 46 46 240 240 103 103 103 103 244 100 100 100 100 186 186 186 186 59 59 59
 155 155 155 18 18 18 46 46 46 46 46 240 240 103 103 103 103 244 100 100
 100 186 186 186 186 186 59 59 59 155 155 155 18 18 18 46 46 46 46 46
 240 103 103 103 103 103 244 100 100 100 186 186 186 181 181 59 59 59 155 155
 155 18 18 18 20 20 20 20 46 240 103 103 103 103 103 49 49 100 181 181
 181 181 181 181 59 59 59 155 155 15 18 18 20 20 20 20 20 20 20 20
 103 103 103 111 151 49 181 181 181 181 181 181 181 140 140 140 15 15 15 15
 129 20 20 20 20 20 20 20 111 111 111 111 111 151 147 147 181 181 181 181
 181 140 140 140 140 15 41 41 41 129 20 20 20 20 20 20 20 111 111 111
 111 111 151 147 147 147 181 181 181 181 140 140 140 140 41 41 41 41 129 129
 20 20 20 20 20 20 111 111 111 111 111 96 147 147 147 181 181 181 181 216
 216 216 216 41 41 41 41 129 129 20 20 47 47 47 111 111 111 111 111 111
 96 147 147 147 224 224 224 35 216 216 216 216 41 41 41 41 129 129 47 47
 47 47 47 124 111 111 111 111 96 96 147 147 37 224 224 224 35 35 216 216
 216 41 41 41 41 129 47 47 47 47 47 47 124 124 124 111 96 96 96 96
 37 37 37 37 37 35 35 70 10 70 41 56 56 56 129 47 47 47 47 47
 124 124 124 124 124 124 96 96 37 37 37 37 37 37 10 10 10 10 10 10
 56 56 56 56 47 47 47 47 47 124 124 124 124 124 124 124 96 37 37 37
 37 37 37 10 10 10 10 10 10 56 56 56 7 47 47 47 47 124 124 124
 124 124 124 124 124 146 146 146 37 37 37 37 10 10 10 10 10 10 10 56
 56 7 7 7 7 7 124 124 124 124 124 124 124 124 146 146 146 146 146 37
 185 185 10 10 10 10 10 171 56 56 7 7 7 7 7 4 124 124 124 124
 124 124 65 65 146 146 146 185 185 185 185 185 10 10 10 10 171 171 56 7
 7 7 7 7 4 4 4 4 4 4 65 65 65 65 65 185 185 185 185 185
 185 10 10 171 171 171 171 171 7 7 7 7 4 4 4 4 4 182 182 65
 65 25 25 25 185 185 185 185 185 185 185 10 171 171 171 206 66 66 66 160
 160 4 4 4 4 182 182 148 148 148 25 25 25 25 185 185 185 185 185 195
 195 195 195 206 206 66 66 66 160 160 160 160 4 182 182 182 148 148 148 148
 25 25 25 185 185 185 185 195 195 195 195 195 206 206 206 206 206 206 160 160
 160 160 182 182 182 148 148 148 148 148 169 169 169 185 185 195 195 195 195 195
 195 195 206 206 206 206 206 160 160 160 160 182 182 148 148 148 148 148 148 169
 169 72 72 72 195 195 195 195 195 195 195 206 206 206 206 206 160 160 160 160
 192 192 148 148 148 148 148 148 169 169 139 139 139 195 195 195 195 195 195 195
 206 206 206 206 206 206 212 160 160 192 192 42 42 42 42 42 42 42 139 139
 139 139 139 139 195 195 195 195 206 206 206 206 206 206 206 206 46 42 42 42
 42 42 42 42 42 42 42 100 139 139 139 139 174 174 174 174 3 3 3 3
 3 3 3 3 46 46 202 202 202 42 42 42 42 42 42 100 100 139 139 139
 139 174 174 174 174 3 3 3 3 3 3 3 3 46 46 202 202 202 202 42
 42 42 42 42 100 100 100 139 139 139 174 174 174 174 3 3 3 3 3 3
 3 46 46 46 240 240 240 202 202 42 42 42 100 100 100 100 100 139 186 186
 174 174 155 155 3 3 3 3 3 46 46 46 46 240 240 240 240 240 42 42
 42 100 100 100 100 186 186 186 186 59 59 155 155 155 3 3 3 3 46 46
 46 46 240 240 240 240 240 103 103 42 100 100 100 100 186 186 186 186 59 59
 155 155 155 155 18 18 18 46 46 46 46 240 240 240 240 240 103 103 49 100
 100 100 186 186 186 186 186 59 59 155 155 155 155 18 18 18 18 46 46 46
 46 240 240 240 240 103 103 49 49 49 100 186 186 186 181 181 59 59 155 155
 155 155 18 18 18 18 46 20 46 20 240 240 240 240 103 49 49 49 49 181
 181 181 181 181 181 140 140 78 78 78 155 18 18 18 20 20 20 20 20 20
 67 67 111 111 96 49 49 181 181 181 181 181 181 181 140 140 140 78 78 15
 18 18 20 20 20 20 20 20 20 67 111 111 111 96 96 147 147 181 181 181
 181 181 140 140 140 140 140 41 41 41 129 20 20 20 20 20 20 20 111 111
 111 111 96 96 147 147 147 181 181 181 181 140 140 140 140 140 41 41 41 129
 129 20 20 20 20 20 111 111 111 111 111 96 96 147 147 147 181 181 181 181
 216 216 216 216 41 41 41 41 129 129 20 20 47 47 47 111 111 111 111 111
 96 96 147 147 147 181 181 181 216 216 216 216 216 41 41 41 41 129 129 47
 47 47 47 47 47 111 111 111 96 96 96 147 147 147 37 37 27 27 216 216
 216 216 41 41 41 41 129 47 47 47 47 47 47 124 124 124 96 96 96 96
 96 37 37 37 37 37 27 10 10 10 10 10 41 41 41 47 47 47 47 47
 47 124 124 124 124 124 96 96 96 96 37 37 37 37 37 10 10 10 10 10
 10 10 56 56 47 47 47 47 47 47 124 124 124 124 124 124 96 96 146 146
 37 37 37 37 10 10 10 10 10 10 10 10 56 7 47 47 47 47 124 124
 124 124 124 124 124 124 146 146 146 146 146 37 37 10 10 10 10 10 10 10
 10 56 7 119 119 119 119 119 124 124 124 124 124 124 124 146 146 146 146 146
 146 185 185 10 10 10 10 10 10 10 71 7 119 119 119 119 119 124 124 124
 124 124 124 65 146 146 146 146 146 185 185 185 185 10 10 10 10 10 10 71
 7 7 119 119 119 119 182 182 182 182 182 65 65 65 65 65 146 185 185 185
 185 185 10 10 10 10 166 166 166 206 7 160 160 160 4 182 182 182 182 182
 182 65 65 65 65 185 185 185 185 185 185 185 10 166 166 166 166 206 206 160
 160 160 160 160 182 182 182 182 182 148 148 65 65 65 65 185 185 185 185 185
 195 195 195 149 149 149 206 206 160 160 160 160 160 182 182 182 182 148 148 148
 148 65 65 65 185 185 185 185 195 195 195 195 149 149 206 206 206 206 160 160
 160 160 160 182 182 182 148 148 148 148 148 65 65 72 72 72 195 195 195 195
 195 195 195 206 206 206 206 206 160 160 160 160 182 182 182 148 148 148 148 148
 65 72 72 72 72 195 195 195 195 195 195 195 206 206 206 206 206 160 160 160
 160 182 182 148 148 148 148 148 148 72 72 72 72 72 195 195 195 195 195 195
 195 206 206 206 206 206 160 160 160 160 192 192 42 42 42 42 42 42 42 139
 139 139 72 72 72 195 195 195 150 3 3 206 206 206 206 226 226 46 202 202
 202 202 42 42 42 42 42 42 100 72 72 72 139 174 174 174 150 3 3 3
 3 3 3 3 3 46 46 202 202 202 202 202 42 42 42 42 100 100 139 139
 139 139 174 174 174 217 3 3 3 3 3 3 3 3 46 46 202 202 202 202
 202 202 42 42 42 100 100 100 139 139 186 186 174 174 155 3 3 3 3 3
 3 3 46 46 46 240 240 240 202 202 202 202 42 100 100 100 100 100 139 186
 186 186 155 155 155 3 3 3 3 3 3 46 46 46 240 240 240 240 202 202
 202 42 100 100 100 100 186 186 186 186 186 155 155 155 155 3 3 3 3 46
 46 46 46 240 240 240 240 240 202 202 42 100 100 100 186 186 186 186 186 59
 155 155 155 155 155 18 18 18 18 46 46 46 240 240 240 240 240 103 49 49
 49 49 100 186 186 186 186 186 59 155 155 155 155 155 18 18 18 18 46 46
 46 240 240 240 240 240 240 49 49 49 49 181 181 186 186 181 181 59 155 155
 155 155 18 18 18 18 227 227 46 67 67 67 67 67 240 240 49 49 49 49
 181 181 181 181 181 181 140 140 78 78 78 18 18 18 227 227 20 20 20 67
 67 67 67 67 96 49 49 49 49 181 181 181 181 181 181 140 140 140 78 78
 78 18 18 227 20 20 20 20 67 67 67 67 96 96 96 73 147 147 147 181
 181 181 181 140 140 140 140 140 41 41 41 129 20 20 20 20 20 20 67 67
 111 96 96 96 73 147 147 147 181 181 181 181 140 140 140 140 140 41 41 41
 129 129 20 20 20 20 20 67 111 111 96 96 96 96 147 147 147 181 181 181
 27 216 216 216 216 216 41 41 41 129 129 20 20 47 47 47 111 111 111 96
 96 96 96 147 147 147 181 27 27 27 216 216 216 216 216 41 41 41 129 129
 47 47 47 47 47 47 111 111 96 96 96 96 147 147 147 27 27 27 27 27
 216 216 216 216 41 41 41 129 47 47 47 47 47 47 124 124 96 96 96 96
 96 96 147 37 27 27 27 27 27 10 10 10 10 41 41 41 47 47 47 47
 47 47 47 124 124 124 124 96 96 96 96 37 37 37 27 27 27 10 10 10
 10 10 10 71 71 47 47 47 47 47 47 124 124 124 124 124 124 96 143 146
 146 146 146 37 27 10 10 10 10 10 10 10 10 71 71 119 119 119 119 119
 124 124 124 124 124 124 143 143 146 146 146 146 146 27 10 10 10 10 10 10
 10 10 71 71 119 119 119 119 119 119 124 124 124 124 124 143 143 146 146 146
 146 146 185 185 10 10 10 10 10 10 10 71 71 119 119 119 119 119 119 124
 124 124 124 124 143 143 146 146 146 146 185 185 185 10 10 10 10 10 10 10
 71 130 119 119 119 119 119 119 182 182 182 182 182 65 65 65 65 146 185 185
 185 185 185 10 10 166 166 166 166 166 130 130 119 119 119 119 182 182 182 182
 182 182 65 65 65 65 65 185 185 185 185 185 10 166 166 166 166 166 166 206
 160 160 160 160 160 182 182 182 182 182 148 65 65 65 65 65 185 185 185 185
 185 149 149 149 149 149 149 149 206 160 160 160 160 160 182 182 182 182 182 148
 148 65 65 65 65 185 185 185 72 72 195 149 149 149 149 149 206 206 206 160
 160 160 160 160 182 182 182 182 148 148 65 65 65 72 72 72 72 72 195 195
 195 149 149 149 206 206 206 206 160 160 160 160 160 182 182 182 148 148 148 148
 148 72 72 72 72 72 72 195 195 195 195 238 238 206 206 206 206 206 160 160
 160 160 182 182 182 148 148 148 148 148 72 72 72 72 72 72 195 195 195 195
 195 238 206 206 206 206 206 160 160 160 160 182 192 42 42 42 42 42 42 72
 72 72 72 72 72 72 195 150 150 150 150 132 132 132 132 132 226 226 226 230
 202 202 202 202 202 232 232 232 232 72 72 72 72 72 72 150 150 150 150 150
 132 132 132 132 132 132 226 226 230 202 202 202 202 202 202 232 232 100 72 72
 72 72 139 174 217 217 217 217 132 132 132 132 132 132 132 230 230 230 202 202
 202 202 202 202 202 232 100 100 100 139 139 186 186 174 217 217 217 132 132 132
 132 132 132 132 230 230 230 202 202 202 202 202 202 202 232 100 100 100 100 139
 186 186 186 155 155 155 132 132 132 132 132 132 46 230 230 230 240 240 202 202
 202 202 202 202 100 100 100 186 186 186 186 186 155 155 155 155 132 132 132 132
 132 46 230 230 240 240 240 240 202 202 202 49 49 49 49 186 186 186 186 186
 155 155 155 155 155 155 18 18 18 18 46 46 230 240 240 240 240 240 202 49
 49 49 49 49 186 186 186 181 181 59 155 155 155 155 155 18 18 18 18 227
 46 67 67 240 240 240 240 49 49 49 49 49 49 181 181 181 181 181 181 155
 155 155 155 18 18 18 227 227 227 227 67 67 67 67 67 67 49 49 49 49
 49 49 181 181 181 181 181 140 140 78 78 78 18 18 18 227 227 227 227 67
 67 67 67 67 67 49 49 49 49 49 181 181 181 181 181 181 140 140 140 78
 78 78 18 227 227 227 227 20 67 67 67 67 67 67 96 73 73 73 147 147
 181 181 181 181 140 140 140 140 140 78 41 41 227 227 227 20 20 67 67 67
 67 67 96 96 96 73 73 147 147 181 181 181 181 140 140 140 140 140 41 41
 41 129 227 20 20 20 20 67 67 67 96 96 96 96 73 147 147 147 181 181
 181 27 216 216 216 216 216 41 41 41 129 129 20 20 47 47 47 67 111 96
 96 96 96 96 147 147 147 27 27 27 27 27 216 216 216 216 41 41 41 8
 8 47 47 47 47 47 47 111 96 96 96 96 96 147 147 147 27 27 27 27
 27 216 216 216 216 41 41 8 8 8 47 47 47 47 47 124 124 96 96 96
 96 96 96 147 27 27 27 27 27 27 27 10 10 71 71 71 8 8 8 47
 47 47 47 47 124 124 11 11 96 96 96 96 146 27 27 27 27 27 27 10
 10 10 71 71 71 71 8 119 119 119 119 119 119 124 124 124 124 96 143 143
 143 146 146 146 27 27 27 10 10 10 10 10 71 71 71 71 119 119 119 119
 119 119 124 124 124 124 143 143 143 143 146 146 146 146 27 10 10 10 10 10
 10 71 71 71 71 119 119 119 119 119 119 119 124 124 124 143 143 143 143 146
 146 146 146 185 10 10 10 10 10 10 71 71 71 71 119 119 119 119 119 119
 119 182 182 69 69 143 143 143 146 146 146 146 185 185 10 10 10 10 166 166
 166 71 130 119 119 119 119 119 119 182 182 182 182 182 65 65 65 146 146 146
 185 185 185 185 10 166 166 166 166 166 166 130 130 119 119 119 119 182 182 182
 182 182 182 65 65 65 65 65 185 185 185 185 185 166 166 166 166 166 166 166
 130 160 160 160 160 160 182 182 182 182 182 182 74 74 65 65 65 185 185 185
 185 185 149 149 149 149 149 149 149 149 160 160 160 160 160 182 182 182 182 182
 148 74 65 65 65 65 72 72 72 72 72 149 149 149 149 149 149 149 206 160
 160 160 160 160 160 182 182 182 182 148 148 65 65 65 72 72 72 72 72 72
 195 149 149 149 149 149 206 206 206 160 160 160 160 160 182 182 182 182 148 148
 65 65 72 72 72 72 72 72 72 195 149 238 238 238 238 206 206 206 160 160
 160 160 160 182 182 182 232 232 232 232 65 72 72 72 72 72 72 72 195 195
 238 238 238 238 206 206 206 206 160 160 160 160 182 232 232 232 232 232 232 232
 72 72 72 72 72 72 72 150 150 150 150 150 150 132 132 226 226 226 226 226
 230 202 202 202 232 232 232 232 232 236 236 72 72 72 72 72 150 150 150 150
 150 132 132 132 132 226 226 226 226 230 202 202 202 202 202 232 232 232 236 236
 236 72 72 72 72 217 217 217 217 150 132 132 132 132 132 226 226 230 230 202
 202 202 202 202 202 232 232 236 236 236 236 72 186 186 217 217 217 217 150 132
 132 132 132 132 226 230 230 230 230 202 202 202 202 202 202 232 236 236 236 236
 72 186 186 61 36 155 155 132 132 132 132 132 132 230 230 230 230 230 202 202
 202 202 202 202 232 236 236 236 186 186 186 186 61 155 155 155 155 132 132 132
 132 132 132 230 230 230 230 240 202 202 202 202 49 49 49 49 186 186 186 186
 61 61 155 155 155 155 155 18 18 18 18 227 230 230 230 240 240 240 202 202
 49 49 49 49 49 49 186 186 181 135 135 155 155 155 155 155 18 18 18 227
 227 227 67 67 67 67 240 202 202 49 49 49 49 49 181 181 181 181 135 135
 155 155 92 92 18 18 18 227 227 227 227 67 67 67 67 67 67 49 49 49
 49 49 49 181 181 181 181 135 135 140 140 92 92 18 18 227 227 227 227 227
 67 67 67 67 67 67 67 49 49 49 49 181 181 181 181 181 135 140 140 140
 140 78 78 227 227 227 227 227 227 67 67 67 67 67 67 67 73 73 73 73
 73 181 181 181 181 140 140 140 140 140 140 41 227 227 227 227 227 141 67 67
 67 67 67 96 96 73 73 73 73 73 181 181 181 181 140 140 140 140 140 140
 41 8 8 227 141 141 141 141 67 67 67 96 96 96 96 73 73 147 147 181
 181 181 27 27 216 216 216 216 41 8 8 8 8 141 141 141 141 141 67 11
 96 96 96 96 96 147 147 147 27 27 27 27 27 216 216 216 216 8 8 8
 8 8 8 141 141 141 141 11 11 11 96 96 96 96 147 147 27 27 27 27
 27 27 27 216 216 71 71 8 8 8 8 8 141 141 214 214 214 11 11 11
 11 96 96 96 147 27 27 27 27 27 27 205 10 71 71 71 71 8 8 8
 8 119 119 214 214 214 11 11 11 11 11 96 143 27 27 27 27 27 27 205
 205 10 71 71 71 71 71 8 8 119 119 119 119 214 214 214 11 11 11 11
 143 143 143 27 27 27 27 205 205 10 10 10 71 71 71 71 71 119 119 119
 119 119 119 214 214 69 69 69 143 143 143 143 146 146 27 27 205 205 10 10
 10 71 71 71 71 71 119 119 119 119 119 119 119 69 69 69 69 143 143 143
 143 146 146 146 27 205 10 10 10 10 71 71 71 71 130 130 119 119 119 119
 119 119 69 69 69 69 143 143 143 143 146 146 146 185 185 10 10 10 166 166
 71 71 130 130 130 119 119 119 119 119 119 182 182 69 69 143 143 143 143 146
 146 185 185 185 185 10 166 166 166 166 166 130 130 130 119 119 119 119 119 182
 182 182 198 198 74 74 74 74 74 185 185 185 185 185 166 166 166 166 166 166
 130 130 130 204 204 204 204 204 182 182 182 198 198 74 74 74 74 74 74 185
 185 72 72 149 149 149 149 149 149 149 149 204 204 204 204 204 204 182 182 182
 198 198 74 74 74 74 74 72 72 72 72 72 149 149 149 149 149 149 149 149
 204 204 204 204 204 204 182 182 182 198 198 74 74 74 65 72 72 72 72 72
 72 149 149 149 149 149 149 149 149 204 204 204 204 204 204 204 182 182 232 232
 232 74 65 72 72 72 72 72 72 72 72 149 238 238 238 238 238 206 204 204
 204 204 204 204 204 204 232 232 232 232 232 232 72 72 72 72 72 72 72 72
 149 238 238 238 238 238 206 226 226 204 204 204 204 204 232 232 232 232 232 232
 232 72 72 72 72 72 72 72 150 150 150 150 150 150 150 226 226 226 226 226
 226 226 232 232 232 232 232 232 232 232 236 236 236 72 72 72 72 150 150 150
 150 150 150 132 132 226 226 226 226 226 230 202 202 202 232 232 232 232 232 236
 236 236 236 72 72 150 150 150 217 217 217 132 132 132 132 226 226 226 230 230
 230 202 202 202 232 232 232 232 236 236 236 236 72 61 150 150 150 217 217 217
 132 132 132 132 132 226 230 230 230 230 202 202 202 202 202 232 232 236 236 236
 236 236 61 61 61 36 36 36 36 132 132 132 132 132 230 230 230 230 230 202
 202 202 202 202 232 232 236 236 236 236 236 61 61 61 61 92 92 92 132 132
 132 132 132 230 230 230 230 230 202 202 202 202 202 49 49 49 2 2 2 61
 61 61 61 61 92 92 92 92 132 18 18 227 230 230 230 230 230 202 202 202
 202 49 49 49 49 2 2 2 61 61 61 61 61 92 92 92 92 18 18 227
 227 227 230 67 67 67 67 67 202 202 49 49 49 49 2 2 181 181 135 135
 135 135 92 92 92 92 18 227 227 227 227 227 67 67 67 67 67 67 49 49
 49 49 49 2 2 181 135 135 135 135 135 92 92 92 92 227 227 227 227 227
 227 67 67 67 67 67 67 67 49 49 49 49 181 181 181 135 135 135 135 135
 140 92 92 92 227 227 227 227 227 227 67 67 67 67 67 67 67 73 73 73
 73 73 181 181 181 135 135 135 140 140 140 140 8 8 227 227 227 141 141 141
 67 67 67 67 67 96 73 73 73 73 73 181 181 181 181 135 140 140 140 140
 140 8 8 8 141 141 141 141 141 141 67 67 67 96 96 187 73 73 73 73
 27 181 181 27 27 216 216 216 216 8 8 8 8 8 141 141 141 141 141 11
 11 11 11 96 96 187 147 147 147 27 27 27 27 27 205 216 216 196 8 8
 8 8 8 141 141 141 141 141 11 11 11 11 11 11 187 147 147 27 27 27
 27 27 27 205 205 205 71 8 8 8 8 8 8 141 141 214 214 214 11 11
 11 11 11 11 11 27 27 27 27 27 27 205 205 205 71 71 71 71 8 8
 8 8 119 214 214 214 214 11 11 11 11 11 11 11 143 27 27 27 27 205
 205 205 205 71 71 71 71 71 8 8 119 119 119 214 214 214 214 11 11 11
 11 143 143 143 143 27 27 27 205 205 205 205 71 71 71 71 71 71 119 119
 119 119 119 214 214 214 69 69 69 69 143 143 143 143 27 27 205 205 205 205
 205 71 71 71 71 71 130 130 119 119 119 119 119 214 69 69 69 69 69 143
 143 143 143 146 146 205 205 205 205 205 71 71 71 71 130 130 130 119 119 119
 119 119 119 69 69 69 69 69 143 143 143 143 146 146 205 205 205 10 166 166
 166 71 71 130 130 130 130 119 119 119 119 119 69 69 69 69 69 143 143 74
 74 50 50 185 185 205 166 166 166 166 166 130 130 130 130 130 204 204 204 204
 182 198 198 198 176 74 74 74 74 74 74 185 185 185 166 166 166 166 166 166
 166 130 130 130 204 204 204 204 204 204 198 198 198 176 74 74 74 74 74 74
 72 72 72 72 149 149 149 149 149 149 130 130 204 204 204 204 204 204 204 198
 198 198 198 74 74 74 74 74 72 72 72 72 72 149 149 149 149 149 149 149
 204 204 204 204 204 204 204 204 204 198 198 198 74 74 74 74 72 72 72 72
 72 72 72 149 149 149 149 149 149 204 204 204 204 204 204 204 204 204 198 198
 232 232 232 74 72 72 72 72 72 72 72 72 149 238 238 238 238 238 204 204
 204 204 204 204 204 204 204 232 232 232 232 232 232 72 72 72 72 72 72 72
 72 149 238 238 238 238 226 226 226 226 226 204 204 204 204 232 232 232 232 232
 232 232 236 72 72 72 72 72 72 150 150 150 217 150 150 150 226 226 226 226
 226 226 226 232 232 232 232 232 232 232 232 236 236 236 236 72 72 72 150 150
 150 150 150 150 215 226 226 226 226 226 226 230 230 202 232 232 232 232 232 232
 236 236 236 236 72 72 150 150 150 150 217 150 150 215 215 226 226 226 226 230
 230 230 202 202 232 232 232 232 232 236 236 236 236 236 61 61 36 36 217 217
 217 215 215 215 215 226 226 230 230 230 230 202 202 202 232 232 232 232 236 236
 236 236 236 61 61 61 36 36 36 36 215 215 215 215 215 230 230 230 230 230
 202 202 202 202 232 232 232 236 236 236 236 236 61 61 61 61 36 36 36 36
 215 215 215 215 230 230 230 230 230 202 202 202 202 202 49 49 2 2 2 2
 61 61 61 61 61 92 92 92 36 215 215 215 215 230 230 230 230 230 202 202
 202 202 202 49 49 2 2 2 2 61 61 61 61 61 92 92 92 92 92 199
 199 227 227 230 28 28 67 67 67 202 202 49 49 49 2 2 2 61 61 135
 135 135 61 92 92 92 92 92 227 227 227 227 227 67 67 67 67 67 67 49
 49 49 49 2 2 2 181 135 135 135 135 135 92 92 92 92 92 227 227 227
 227 227 67 67 67 67 67 67 187 187 49 49 2 2 2 117 135 135 135 135
 135 92 92 92 92 136 136 136 136 136 136 67 67 67 67 67 67 187 187 187
 73 73 73 117 117 135 117 135 135 135 140 140 92 92 136 136 136 136 141 141
 141 67 67 67 67 187 187 187 187 73 73 73 117 117 117 117 117 117 117 196
 196 196 8 8 8 136 136 141 141 141 141 67 67 11 187 187 187 187 187 187
 187 117 117 117 117 117 205 196 196 196 196 8 8 8 8 141 141 141 141 141
 11 11 11 11 187 187 187 187 187 187 27 117 117 27 205 205 233 196 196 196
 8 8 8 8 141 141 141 141 141 11 11 11 11 11 187 187 187 187 27 27
 27 27 205 205 205 233 196 196 196 8 8 8 8 8 141 141 214 214 214 11
 11 11 11 11 187 187 187 27 27 27 27 205 205 205 233 233 196 71 8 8
 8 8 8 119 214 214 214 214 11 11 11 11 11 11 187 187 27 27 27 27
 205 205 205 205 71 71 71 71 8 8 8 119 119 214 214 214 214 214 11 11
 11 11 11 143 143 143 27 27 205 205 205 205 205 71 71 71 71 71 71 8
 119 119 119 214 214 214 214 69 69 69 69 143 143 143 143 175 27 205 205 205
 205 205 71 71 71 71 71 130 130 119 119 119 119 214 214 69 69 69 69 69
 143 143 143 143 175 175 205 205 205 205 205 71 71 71 71 130 130 130 130 119
 119 119 91 91 69 69 69 69 69 143 143 143 50 175 175 205 205 205 205 205
 71 71 71 71 130 130 130 130 119 119 91 91 91 91 69 69 69 69 143 143
 50 50 50 50 205 205 205 166 166 166 166 166 130 130 130 130 130 204 204 91
 91 91 198 198 198 198 198 74 74 74 50 50 50 50 185 166 166 166 166 166
 166 166 130 130 130 204 204 204 204 204 204 198 198 176 198 198 74 74 74 51
 51 51 72 72 72 149 149 149 149 149 149 130 130 204 204 204 204 204 204 204
 198 198 198 198 198 74 74 74 51 51 72 72 72 72 149 149 149 149 149 149
 149 204 204 204 204 204 204 204 204 204 198 198 198 198 74 74 72 72 72 72
 72 72 72 149 149 149 149 149 149 149 204 204 204 204 204 204 204 204 204 198
 198 232 232 232 232 72 72 72 72 72 72 72 72 149 149 238 238 149 149 226
 204 204 204 204 204 204 204 204 232 232 232 232 232 232 72 72 72 72 72 72
 72 72 217 217 217 217 217 226 226 226 226 226 204 204 204 204 232 232 232 232
 232 232 232 236 236 72 72 72 72 72 150 150 217 217 217 150 150 226 226 226
 226 226 226 226 232 232 232 232 232 232 232 232 236 236 236 236 72 72 150 150
 150 150 150 150 150 215 226 226 226 226 226 226 230 230 232 232 232 232 232 232
 232 236 236 236 236 236 61 150 150 150 150 150 150 215 215 215 226 226 226 226
 230 230 230 230 232 232 232 232 232 232 236 236 236 236 236 61 61 36 36 36
 36 36 215 215 215 215 226 226 230 230 230 230 230 202 232 232 232 232 232 236
 236 236 236 236 61 61 61 36 36 36 36 36 215 215 215 222 230 230 230 230
 230 230 202 202 232 232 232 232 236 236 236 236 61 61 61 61 36 36 36 36
 36 215 215 215 222 230 230 230 230 230 230 202 202 202 202 232 232 2 2 2
 61 61 61 61 61 61 36 36 36 36 215 215 199 199 199 230 28 28 28 28
 202 202 202 202 49 49 2 2 2 61 61 61 61 61 61 92 92 92 36 36
 199 199 199 199 28 28 28 28 67 221 221 221 221 49 49 2 2 2 61 61
 61 61 61 61 92 92 92 92 92 199 199 199 136 28 28 28 28 67 67 221
 221 221 49 49 2 2 2 61 61 135 135 135 61 92 92 92 92 136 136 136
 136 136 136 67 67 67 67 67 221 187 187 187 187 2 2 117 117 135 117 135
 135 135 92 92 92 92 136 136 136 136 136 136 67 67 67 67 67 187 187 187
 187 187 73 117 117 117 117 117 117 135 135 92 92 92 136 136 136 136 136 136
 141 141 67 67 67 187 187 187 187 187 187 187 117 117 117 117 117 117 117 117
 196 196 196 196 136 136 136 136 141 141 141 141 67 187 187 187 187 187 187 187
 187 187 117 117 117 117 117 117 196 196 196 196 8 8 8 8 141 141 141 141
 141 11 11 11 187 187 187 187 187 187 187 117 117 117 117 205 205 233 196 196
 196 8 8 8 8 141 141 141 141 141 11 11 11 11 187 187 187 187 187 187
 27 117 117 205 205 233 233 196 196 196 8 8 8 16 16 141 141 214 214 214
 11 11 11 11 187 187 187 187 187 27 27 205 205 205 205 233 233 196 196 8
 8 8 16 16 141 214 214 214 214 11 11 11 11 11 187 187 187 27 27 27
 205 205 205 205 233 233 71 71 71 8 8 16 16 119 214 214 214 214 214 11
 11 11 11 187 187 143 175 175 27 205 205 205 205 233 233 71 71 71 71 71
 16 119 119 214 214 214 214 214 69 69 69 69 143 143 143 175 175 175 205 205
 205 205 205 71 71 71 71 71 130 130 119 119 119 214 214 214 69 69 69 69
 69 143 143 50 175 175 175 205 205 205 125 125 71 71 71 71 130 130 130 130
 119 91 91 91 91 91 69 69 69 69 143 143 50 50 175 175 205 125 205 125
 125 71 71 71 130 130 130 130 130 119 91 91 91 91 91 69 69 69 69 143
 50 50 50 50 175 175 125 205 125 166 166 166 166 130 130 130 130 130 204 91
 91 91 91 91 237 237 237 237 51 51 51 50 50 51 51 125 205 166 166 166
 166 166 130 130 130 130 204 204 204 204 91 91 237 237 237 198 237 237 51 51
 51 51 51 51 72 72 149 149 149 149 149 249 130 130 204 204 204 204 204 204
 204 237 237 237 198 198 198 51 51 51 51 51 51 72 72 149 149 149 149 149
 149 149 204 204 204 204 204 204 204 204 204 237 237 198 198 198 51 51 51 51
 51 72 72 72 149 149 149 149 149 149 149 204 204 204 204 204 204 204 204 204
 237 237 198 232 232 232 72 72 72 72 72 72 72 45 45 149 238 217 149 63
 63 204 204 204 204 204 204 204 204 232 232 232 232 232 232 232 72 72 72 72
 72 72 217 217 217 217 217 217 226 226 226 226 226 204 204 204 204 232 232 232
 232 232 232 232 236 236 236 72 72 72 72 150 150 150 217 217 150 150 226 226
 226 226 226 226 226 232 232 232 232 232 232 232 232 145 145 145 116 116 72 150
 150 150 150 150 150 150 215 226 226 226 226 226 226 230 230 232 232 232 232 232
 232 232 145 145 145 145 116 61 61 150 150 150 150 150 215 215 215 222 222 222
 222 230 230 230 232 232 232 232 232 232 232 145 145 145 145 236 61 61 36 36
 36 36 36 36 215 215 222 222 222 222 230 230 230 82 82 232 232 232 232 232
 236 236 236 236 61 61 61 61 36 36 36 36 36 215 215 222 222 222 222 230
 230 230 230 82 82 232 232 232 232 236 236 236 61 61 61 61 61 36 36 36
 36 36 36 215 222 222 222 222 230 28 230 82 202 82 202 232 232 232 2 2
 2 61 61 61 61 61 61 36 36 36 36 36 199 199 199 199 28 28 28 28
 28 221 221 221 221 49 49 2 2 2 61 61 61 61 61 61 36 36 36 36
 199 199 199 199 199 28 28 28 28 28 221 221 221 221 221 49 2 2 2 61
 61 61 61 61 61 61 92 92 36 199 199 199 199 199 28 28 28 28 221 221
 221 221 221 221 49 2 2 2 61 61 117 61 61 61 61 92 92 92 136 136
 136 136 136 136 28 28 28 221 221 221 221 221 221 187 2 2 117 117 117 117
 117 61 61 61 92 92 136 136 136 136 136 136 136 136 67 67 221 221 221 221
 187 187 187 187 117 117 117 117 117 117 117 117 117 196 196 136 136 136 136 136
 136 136 141 67 67 221 221 187 187 187 187 187 187 187 117 117 117 117 117 117
 117 196 196 196 196 136 136 136 136 136 141 141 141 67 187 187 187 187 187 187
 187 187 187 117 117 117 117 117 117 117 196 196 196 196 16 16 136 136 141 141
 141 141 11 11 187 187 187 187 187 187 187 187 117 117 117 117 117 233 233 196