# vtk DataFile Version 2.0
Data set from ImportExport Version 6.5.171.b0b162591
ASCII

DATASET RECTILINEAR_GRID
DIMENSIONS 30 30 30
X_COORDINATES 30 float
-1.250000 1.250000 3.750000 6.250000 8.750000 11.250000 13.750000 16.250000 18.750000 21.250000 23.750000 26.250000 28.750000 31.250000 33.750000 36.250000 38.750000 41.250000 43.750000 46.250000 48.750000 
51.250000 53.750000 56.250000 58.750000 61.250000 63.750000 66.250000 68.750000 71.250000 
Y_COORDINATES 30 float
-1.250000 1.250000 3.750000 6.250000 8.750000 11.250000 13.750000 16.250000 18.750000 21.250000 23.750000 26.250000 28.750000 31.250000 33.750000 36.250000 38.750000 41.250000 43.750000 46.250000 48.750000 
51.250000 53.750000 56.250000 58.750000 61.250000 63.750000 66.250000 68.750000 71.250000 
Z_COORDINATES 30 float
-1.250000 1.250000 3.750000 6.250000 8.750000 11.250000 13.750000 16.250000 18.750000 21.250000 23.750000 26.250000 28.750000 31.250000 33.750000 36.250000 38.750000 41.250000 43.750000 46.250000 48.750000 
51.250000 53.750000 56.250000 58.750000 61.250000 63.750000 66.250000 68.750000 71.250000 
CELL_DATA 24389
SCALARS FeatureIds int 1
LOOKUP_TABLE default
 30 54 54 54 107 107 184 184 184 184 184 184 252 252 252 252 85 85 85 85
 85 85 85 30 30 30 30 30 30 49 49 54 54 107 184 184 184 184 184 237
 237 252 252 252 252 252 252 85 85 85 85 39 39 39 30 30 30 30 49 49
 49 49 107 184 184 184 184 237 237 237 252 252 252 252 252 252 252 85 85 39
 39 39 39 39 39 30 49 49 49 49 49 49 184 184 237 237 237 237 237 237
 252 252 252 252 252 252 252 39 39 39 39 39 39 39 39 49 49 49 49 49
 157 157 184 237 237 237 237 237 252 252 252 252 252 252 252 252 39 39 39 39
 39 39 39 39 49 49 49 157 157 157 157 244 244 140 140 140 140 224 224 224
 224 224 224 224 224 39 39 39 39 39 39 39 39 49 157 157 157 157 157 157
 244 244 244 140 140 140 224 224 224 224 224 224 224 224 39 39 39 39 39 39
 39 39 49 157 157 157 157 139 139 244 244 244 244 244 187 187 224 224 224 224
 224 224 224 39 39 39 39 39 39 39 151 151 157 157 157 139 139 139 139 244
 244 244 187 187 187 187 224 224 224 224 224 224 39 39 39 39 39 151 151 151
 151 75 75 157 139 139 139 139 139 187 187 187 187 187 187 187 187 224 224 224
 142 162 162 39 151 151 151 151 151 151 75 75 139 139 139 139 139 139 187 187
 187 187 187 187 187 187 187 138 138 142 142 162 151 151 151 151 151 151 151 75
 75 75 139 139 139 139 139 187 187 187 187 187 187 187 187 138 138 138 138 142
 142 151 151 151 151 151 151 151 75 75 75 139 139 139 139 139 187 187 187 187
 187 187 187 187 138 138 138 138 138 37 151 151 151 151 151 151 151 219 75 75
 81 81 139 139 139 187 187 187 187 187 187 187 187 138 138 138 138 37 37 37
 219 219 219 219 219 219 219 219 75 81 81 81 81 81 116 187 187 187 187 187
 187 102 102 68 138 138 43 37 37 219 219 219 219 219 219 219 219 219 81 81
 81 81 81 116 187 187 187 187 187 102 102 102 68 68 43 43 43 37 219 219
 219 219 219 219 219 219 219 81 81 81 81 81 81 187 187 187 187 102 102 102
 102 102 43 43 43 43 43 219 219 219 219 219 219 145 145 145 81 81 81 81
 81 81 34 34 187 102 102 102 102 102 102 43 43 43 43 163 163 163 163 145
 145 145 145 145 145 66 81 81 81 34 34 34 34 241 241 102 102 102 102 102
 235 235 235 235 163 163 163 163 163 145 145 145 145 66 66 66 66 34 34 34
 34 34 241 241 241 102 102 102 102 235 235 235 235 235 163 163 163 163 163 145
 145 66 66 66 66 66 34 34 34 34 34 241 241 241 241 241 241 235 235 235
 235 235 163 163 163 163 163 163 145 66 66 66 66 66 66 34 34 34 34 34
 241 241 241 241 241 241 235 235 235 235 82 82 82 156 156 156 163 145 66 66
 66 66 66 66 34 34 160 34 34 241 241 241 241 241 241 195 235 235 235 82
 82 82 156 156 156 156 156 54 54 54 54 223 223 160 160 160 160 160 160 241
 241 241 195 195 85 85 85 71 71 71 71 71 156 156 156 156 54 54 54 54
 54 54 160 160 160 160 160 160 160 241 241 85 85 85 85 85 71 71 71 71
 71 71 71 71 30 54 54 54 54 54 54 160 160 160 160 160 160 160 241 85
 85 85 85 85 85 85 71 71 71 71 71 71 71 30 54 54 54 54 54 54
 242 160 160 160 160 160 160 160 85 85 85 85 85 85 85 71 71 71 71 71
 30 30 30 54 54 54 54 54 107 242 184 160 160 160 160 160 85 85 85 85
 85 85 85 85 71 71 71 71 71 30 30 30 54 54 54 54 107 107 184 184
 184 184 160 160 160 85 85 85 85 85 85 85 85 71 71 71 71 30 30 30
 30 30 54 54 54 54 184 184 184 184 184 184 184 99 252 252 252 85 85 85
 85 85 85 39 39 30 30 30 30 30 49 49 54 54 54 184 184 184 184 184
 237 99 99 252 252 252 252 252 85 85 85 85 39 39 39 39 30 30 30 49
 49 49 49 49 184 184 184 184 184 237 99 99 252 252 252 252 252 252 252 39
 39 39 39 39 39 135 135 49 49 49 49 49 49 184 184 184 184 237 237 99
 99 252 252 252 252 252 252 252 39 39 39 39 39 39 135 135 49 49 49 49
 157 157 157 184 237 237 237 237 99 99 252 252 252 252 252 252 252 39 39 39
 39 39 39 39 135 135 49 49 157 157 157 157 157 244 140 140 140 140 99 252
 252 252 252 252 252 252 39 39 39 39 39 39 39 135 135 157 157 157 157 157
 157 157 244 244 140 140 187 224 252 252 252 252 252 252 88 39 39 39 39 39
 39 39 39 135 157 157 157 157 157 139 139 139 244 244 187 187 187 187 224 224
 224 224 224 88 88 39 39 39 39 39 39 39 249 157 157 157 157 139 139 139
 139 244 187 187 187 187 187 187 224 224 224 224 202 88 39 39 39 39 151 151
 151 151 75 75 153 153 139 139 139 139 187 187 187 187 187 187 187 187 187 138
 138 142 162 162 162 162 151 151 151 151 151 75 75 75 153 139 139 139 139 187
 187 187 187 187 187 187 187 138 138 138 142 142 162 151 151 151 151 151 151 151
 75 75 75 75 139 139 139 139 187 187 187 187 187 187 187 187 138 138 138 138
 142 142 151 151 151 151 151 151 151 75 75 75 75 139 139 139 139 187 187 187
 187 187 187 187 138 138 138 138 138 138 37 151 151 151 151 151 151 75 75 75
 75 75 139 139 139 116 116 116 187 187 187 187 187 138 138 138 138 138 37 37
 37 151 151 219 219 219 219 219 75 75 75 81 81 81 116 116 116 116 187 187
 187 187 138 138 138 138 138 37 37 37 37 219 219 219 219 219 219 219 75 81
 81 81 81 1 116 116 116 187 187 187 102 102 102 138 138 37 37 37 37 37
 219 219 219 219 219 219 219 219 81 81 81 81 1 1 116 116 187 187 102 102
 102 102 102 124 124 124 37 37 37 219 219 219 219 219 219 219 219 66 81 81
 81 1 34 34 34 241 241 102 102 102 102 124 124 124 124 124 163 163 163 163
 174 174 219 174 174 66 66 66 66 149 34 34 34 34 241 241 241 102 102 102
 102 124 124 124 124 163 163 163 163 163 174 174 174 66 66 66 66 66 34 34
 34 34 34 241 241 241 241 102 102 102 235 124 124 235 163 163 163 163 163 163
 174 174 66 66 66 66 66 34 34 34 34 34 241 241 241 241 241 241 235 235
 235 235 235 163 163 163 163 163 163 174 66 66 66 66 66 66 34 34 34 34
 34 241 241 241 241 241 195 195 235 235 235 82 82 163 163 163 163 163 174 66
 66 66 66 66 66 34 34 34 34 34 34 241 241 241 195 195 195 195 235 143
 71 82 71 156 156 156 156 156 223 223 223 223 223 223 160 160 160 160 160 160
 241 241 195 195 195 195 195 143 143 71 71 71 71 156 156 156 30 54 54 54
 54 54 54 160 160 160 160 160 160 160 195 195 195 195 85 85 85 71 71 71
 71 71 71 71 71 30 54 54 54 54 54 54 242 160 160 160 160 160 160 195
 195 195 85 85 85 85 85 71 71 71 71 71 71 30 30 54 54 54 54 54
 54 242 242 160 160 160 160 160 195 195 85 85 85 85 85 85 71 71 71 71
 71 30 30 30 54 54 54 54 54 54 242 242 242 160 160 160 160 85 85 85
 85 85 85 85 85 71 71 71 71 71 30 30 30 54 54 54 54 54 54 184
 184 184 184 160 160 160 85 85 85 85 85 85 85 85 71 71 71 71 30 30
 30 30 30 54 54 54 54 242 184 184 184 184 184 99 99 252 252 252 85 85
 85 85 85 85 39 39 39 30 30 30 30 49 49 54 54 54 184 184 184 184
 184 184 99 99 99 252 252 252 252 85 85 85 85 39 39 39 135 135 135 135
 49 49 49 49 6 184 184 184 184 184 184 99 99 99 252 252 252 252 85 85
 85 39 39 39 39 39 135 135 135 49 49 49 49 49 157 184 184 184 184 99
 99 99 99 99 252 252 252 252 252 88 39 39 39 39 39 135 135 135 49 49
 49 157 157 157 157 184 184 184 99 99 99 99 99 252 252 252 252 88 88 39
 39 39 39 39 135 135 135 49 157 157 157 157 157 157 157 140 140 140 99 99
 99 252 252 252 252 252 88 88 88 39 39 39 39 39 135 135 157 157 157 157
 157 157 157 157 244 140 187 46 46 99 252 252 252 252 252 88 88 88 39 39
 39 39 39 135 135 157 157 157 157 157 157 139 139 139 187 187 187 187 46 252
 252 252 252 252 88 88 88 39 39 39 39 39 249 249 249 157 157 157 157 139
 139 139 139 187 187 187 187 187 46 46 252 252 202 202 88 162 162 162 162 151
 151 151 75 75 75 153 153 153 139 139 139 187 187 187 187 187 187 187 187 138
 138 138 142 162 162 162 162 151 151 151 151 75 75 75 75 153 153 139 139 139
 187 187 187 187 187 187 187 187 138 138 138 142 142 162 162 162 151 151 151 151
 75 75 75 75 75 153 139 139 139 187 187 187 187 187 187 187 138 138 138 138
 138 142 183 183 151 151 151 151 151 75 75 75 75 75 75 139 139 116 116 116
 187 187 187 187 187 138 138 138 138 138 138 37 183 151 151 151 151 32 32 75
 75 75 75 75 139 139 116 116 116 116 187 187 187 187 138 138 138 138 138 37
 37 37 37 151 32 32 32 32 219 75 75 75 75 1 1 116 116 116 116 187
 187 187 187 138 138 138 138 138 37 37 37 37 219 219 219 219 219 219 75 75
 75 1 1 1 1 116 116 116 187 187 187 77 138 138 138 138 37 37 37 37
 37 219 219 219 219 219 219 219 219 149 1 1 1 1 1 116 116 187 187 77
 77 77 77 124 124 124 124 37 37 37 174 174 174 174 219 174 174 174 149 149
 149 1 1 64 34 64 64 77 77 77 77 124 124 124 124 124 124 37 163 163
 174 174 174 174 174 174 66 66 66 66 149 34 34 34 34 34 241 241 77 77
 77 124 124 124 124 124 124 163 163 163 174 174 174 174 66 66 66 66 66 66
 34 34 34 34 34 241 241 241 77 77 124 124 124 124 124 163 163 163 163 163
 174 174 174 66 66 66 66 66 34 34 34 34 34 34 241 241 241 241 195 195
 124 124 124 124 163 163 163 163 163 163 174 66 66 66 66 66 66 34 34 34
 34 34 34 241 241 241 195 195 195 195 7 143 143 163 163 163 163 163 163 174
 66 66 66 66 66 66 34 34 34 34 34 34 241 241 195 195 195 195 195 7
 143 143 143 163 163 163 163 163 174 223 223 223 223 223 223 34 34 34 34 34
 34 241 195 195 195 195 195 195 143 143 143 143 71 71 94 94 94 94 54 54
 223 223 223 223 242 160 160 160 160 160 160 195 195 195 195 195 85 143 143 143
 143 71 71 71 94 94 94 54 54 54 54 54 242 242 242 160 160 160 160 160
 195 195 195 195 85 85 85 143 143 71 71 71 71 71 94 30 54 54 54 54
 54 242 242 242 242 160 160 160 160 195 195 85 85 85 85 85 143 143 71 71
 71 71 30 30 30 54 54 54 54 54 242 242 242 242 242 160 160 160 195 85
 85 85 85 85 85 143 71 71 71 71 71 30 30 30 54 54 54 54 54 242
 242 242 242 242 242 242 242 85 85 85 85 85 85 85 85 71 71 71 71 30
 30 30 30 54 54 54 54 6 6 242 242 242 242 242 99 99 99 252 252 85
 85 85 85 85 85 39 39 39 135 135 30 30 135 49 54 54 6 6 6 184
 184 184 99 99 99 99 99 252 252 252 85 85 85 88 88 39 39 135 135 135
 135 135 49 49 6 6 6 6 184 184 184 99 99 99 99 99 99 252 252 252
 252 88 88 88 39 39 135 135 135 135 135 49 49 49 6 6 6 184 184 184
 99 99 99 99 99 99 99 252 252 88 88 88 88 39 39 135 135 135 135 135
 49 157 157 157 157 157 184 184 184 99 99 99 99 99 99 99 252 252 88 88
 88 88 39 39 39 135 135 135 157 157 157 157 157 157 197 197 197 197 99 99
 99 99 99 99 99 252 88 88 88 88 88 39 39 39 135 135 135 157 157 157
 157 157 157 197 197 197 197 46 46 46 46 46 46 252 252 88 88 88 88 88
 39 39 39 135 135 249 249 157 157 157 157 157 197 197 197 197 187 46 46 46
 46 46 252 108 88 88 88 88 162 162 162 162 135 249 249 249 249 153 153 153
 139 139 139 139 187 187 187 46 46 46 46 46 202 202 202 88 162 162 162 162
 162 151 249 249 249 249 153 153 153 139 139 139 139 187 187 187 187 187 46 46
 138 142 142 142 162 162 162 162 162 162 151 151 249 75 75 75 153 153 139 139
 139 187 187 187 187 187 187 187 213 138 138 142 142 142 162 162 162 162 151 151
 151 75 75 75 75 75 153 139 139 139 116 116 187 187 187 187 187 138 138 138
 138 142 142 183 183 183 183 151 151 151 75 75 75 75 75 75 139 139 116 116
 116 116 187 187 187 187 138 138 138 138 138 142 183 183 183 183 151 32 32 32
 75 75 75 75 75 1 1 116 116 116 116 116 187 187 187 138 138 138 138 138
 37 37 37 37 183 32 32 32 32 32 75 75 75 1 1 1 1 116 116 116
 116 187 187 138 138 138 138 138 37 37 37 37 37 37 219 32 32 32 174 75
 75 75 1 1 1 1 1 116 116 116 187 77 77 138 138 138 138 37 37 37
 37 37 37 174 174 174 174 174 174 174 149 1 1 1 1 1 64 64 64 64
 77 77 77 77 124 124 124 124 37 37 37 174 174 174 174 174 174 174 174 149
 149 149 1 1 64 64 64 206 206 77 77 77 77 124 124 124 124 37 37 37
 174 174 174 174 174 174 174 66 66 149 149 149 149 34 34 34 206 206 77 77
 77 77 124 124 124 124 124 37 163 163 174 174 174 174 174 66 66 66 66 149
 149 34 34 34 34 206 206 206 77 77 77 124 124 124 124 124 163 163 163 163
 174 174 174 174 66 66 66 66 66 149 34 34 34 34 34 206 241 241 195 195
 195 124 124 124 124 163 163 163 163 163 174 174 66 66 66 66 66 66 34 34
 34 34 34 34 34 241 195 195 195 195 7 7 143 143 143 163 163 163 163 174
 174 66 66 66 66 66 66 34 34 34 34 34 34 34 195 195 195 195 195 7
 7 143 143 143 143 94 94 94 94 174 223 223 223 223 223 223 34 34 34 34
 34 34 34 195 195 195 195 195 7 7 143 143 143 143 94 94 94 94 94 223
 223 223 223 223 223 242 242 160 160 160 160 195 195 195 195 195 195 143 143 143
 143 143 143 94 94 94 94 94 54 54 54 223 54 242 242 242 242 160 160 160
 195 195 195 195 195 85 85 143 143 143 143 94 94 94 94 94 94 54 54 54
 54 54 242 242 242 242 242 160 160 160 195 195 195 85 85 85 143 143 143 143
 94 94 94 94 94 94 54 54 54 54 54 242 242 242 242 242 23 23 23 195
 85 85 85 85 85 85 143 143 143 94 94 94 94 94 30 54 54 54 54 54
 242 242 242 242 242 23 23 23 23 85 85 85 85 85 85 143 143 143 71 94
 94 30 30 30 54 54 54 6 6 6 6 242 242 23 23 23 99 201 201 201
 201 85 85 85 85 88 88 232 232 232 135 135 135 135 49 6 6 6 6 6
 6 184 23 23 99 99 99 201 201 201 201 85 85 88 88 88 88 135 135 135
 135 135 135 49 6 6 6 6 6 6 184 184 99 99 99 99 99 99 201 252
 252 88 88 88 88 88 135 135 135 135 135 135 49 49 6 6 6 6 6 184
 99 99 99 99 99 99 99 99 99 99 88 88 88 88 88 39 135 135 135 135
 135 49 157 157 157 157 6 197 197 99 99 99 99 99 99 99 99 99 99 88
 88 88 88 88 39 135 135 135 135 157 157 157 157 157 191 191 197 197 197 46
 46 46 46 99 99 99 99 88 88 88 88 88 88 39 135 135 135 135 249 157
 157 157 197 191 197 197 197 197 46 46 46 46 46 46 99 108 88 88 88 88
 88 88 39 39 135 135 249 249 249 157 157 197 197 197 197 197 197 46 46 46
 46 46 46 46 108 88 88 88 88 162 162 162 162 162 249 249 249 249 249 153
 197 197 197 197 197 197 46 46 46 46 46 46 46 202 202 202 202 162 162 162
 162 162 162 249 249 249 249 249 153 153 197 197 197 197 187 187 46 46 46 46
 46 46 142 142 142 142 162 162 162 162 162 162 249 249 249 249 249 153 153 153
 139 139 116 187 187 187 213 213 213 213 213 142 142 142 142 162 162 162 162 183
 151 249 249 75 75 75 75 153 153 139 116 116 116 116 187 213 213 213 213 138
 138 142 142 142 183 183 183 183 183 32 32 75 75 75 75 75 75 1 116 116
 116 116 116 116 213 213 213 138 138 138 138 142 142 183 183 183 183 183 32 32
 75 75 75 75 75 75 1 1 1 116 116 116 116 213 213 213 138 138 138 138
 37 37 37 37 183 183 183 32 32 32 75 75 75 75 1 1 1 1 1 116
 116 116 116 213 138 138 138 138 138 37 37 37 37 37 37 219 32 32 32 174
 75 75 1 1 1 1 1 1 1 116 116 116 77 77 77 77 138 37 37 37
 37 37 37 37 174 174 174 174 174 174 149 149 1 1 1 1 1 64 64 64
 64 77 77 77 77 77 124 124 37 37 37 37 37 174 174 174 174 174 174 149
 149 149 149 1 1 64 64 64 206 206 77 77 77 77 77 124 124 124 37 37
 37 37 174 174 174 174 174 174 149 149 149 149 149 149 64 64 64 206 206 77
 77 77 77 77 124 124 124 37 37 37 250 250 174 174 174 174 66 66 66 149
 149 149 149 34 34 206 206 206 206 77 77 77 77 124 124 124 37 37 250 250
 250 250 174 174 174 66 66 66 66 149 149 34 34 34 34 206 206 206 241 195
 77 195 7 7 7 7 37 250 250 250 250 174 174 66 66 66 66 66 66 149
 34 34 34 34 34 206 195 195 195 195 195 7 7 7 7 143 133 133 250 250
 174 96 66 66 66 66 66 66 34 34 34 34 34 34 34 195 195 195 195 195
 7 7 7 143 143 133 133 133 94 94 96 66 66 223 223 223 223 34 34 125
 125 125 34 34 195 195 195 195 195 7 7 143 143 143 143 94 94 94 94 94
 66 66 223 223 223 242 242 242 125 125 125 34 195 195 195 195 195 195 7 7
 143 143 143 143 94 94 94 94 94 54 54 54 87 87 242 242 242 242 242 23
 23 195 195 195 195 195 195 143 143 143 143 143 94 94 94 94 94 94 54 54
 54 54 242 242 242 242 242 23 23 23 23 195 195 195 85 85 143 143 143 143
 143 94 94 94 94 94 94 54 54 54 54 242 242 242 242 242 23 23 23 23
 23 85 85 85 85 85 143 143 143 143 94 94 94 94 94 94 54 54 54 54
 6 242 242 242 242 23 23 23 23 33 33 85 85 85 85 85 143 143 143 94
 94 94 94 94 94 232 204 204 204 6 6 6 6 23 23 23 23 33 33 201
 201 201 33 33 33 230 230 230 232 232 232 232 232 232 232 204 204 204 6 6
 6 6 23 23 23 99 99 99 201 201 201 33 33 230 230 230 230 230 232 232
 232 232 135 135 204 204 204 6 6 6 6 6 23 99 99 99 99 99 201 201
 33 33 230 230 230 230 230 232 232 232 135 135 135 70 204 204 6 6 6 6
 6 99 99 99 99 99 99 99 205 205 205 230 230 230 88 88 88 135 135 135
 135 135 70 157 157 197 197 197 197 197 197 99 99 99 99 99 99 205 205 88
 88 88 88 88 88 88 135 135 135 135 249 157 157 197 197 197 197 197 197 197
 46 46 46 46 46 108 108 108 88 88 88 88 88 88 88 135 135 135 135 249
 249 249 197 197 197 197 197 197 197 46 46 46 46 46 108 108 108 202 88 88
 88 88 88 88 162 135 249 249 249 249 249 197 197 191 197 197 197 197 46 46
 46 46 46 108 108 108 202 202 88 88 162 162 162 162 162 249 249 249 249 249
 249 197 197 197 197 197 197 46 46 46 46 46 108 108 202 202 202 202 162 162
 162 162 162 162 249 249 249 249 249 249 197 197 197 197 197 197 213 213 213 213
 213 213 213 202 202 202 202 162 162 162 162 162 162 249 249 249 249 249 249 153
 197 197 197 197 213 213 213 213 213 213 213 213 142 142 142 142 162 162 162 183
 183 183 249 249 161 161 161 161 249 197 197 1 116 116 213 213 213 213 213 213
 213 142 142 142 142 183 183 183 183 183 183 32 161 161 161 161 161 249 1 1
 1 116 116 116 213 213 213 213 213 138 138 142 142 142 183 183 183 183 183 32
 32 161 75 75 75 75 1 1 1 1 1 116 116 213 213 213 213 213 138 138
 138 142 37 37 37 183 183 183 32 32 32 75 75 75 1 1 1 1 1 1
 1 116 116 213 213 213 138 138 138 37 37 37 37 37 37 37 37 32 32 32
 174 75 75 1 1 1 1 1 1 1 64 64 77 77 77 77 77 77 37 37
 37 37 37 37 37 174 174 174 174 174 174 174 1 1 1 1 1 1 64 64
 64 64 77 77 77 77 77 37 37 37 37 37 37 37 174 174 174 174 174 174
 149 149 149 149 1 1 64 64 64 206 206 77 77 77 77 77 124 37 37 37
 37 37 37 250 174 174 174 174 174 149 149 149 149 149 149 64 64 64 206 206
 77 77 77 77 77 124 37 37 37 37 37 250 250 250 174 174 174 66 66 149
 149 149 149 149 64 206 206 206 206 206 77 77 77 77 77 37 37 37 37 250
 250 250 250 250 174 96 66 66 149 149 149 149 149 34 34 206 206 206 206 77
 77 77 77 7 7 7 133 133 250 250 250 250 96 96 66 66 66 66 149 149
 149 34 34 34 34 206 206 195 195 195 195 195 7 7 7 133 133 133 133 250
 96 96 96 96 66 66 66 66 66 149 34 125 125 125 34 206 195 195 195 195
 7 7 7 7 143 133 133 133 133 96 96 96 214 214 223 223 223 223 125 125
 125 125 125 125 125 195 195 195 195 7 7 7 7 143 143 133 133 94 94 94
 94 214 214 214 214 87 87 242 125 125 125 125 125 195 195 195 195 195 7 7
 7 143 143 143 133 94 94 94 94 94 214 214 214 87 87 87 242 242 242 125
 23 23 195 195 195 195 195 195 143 143 143 143 143 94 94 94 94 94 94 87
 87 87 87 214 242 242 242 23 23 23 23 23 195 195 195 195 143 143 143 143
 143 143 94 94 94 94 94 94 87 87 214 214 214 242 242 242 23 23 23 23
 23 23 33 33 33 85 143 143 143 143 143 94 94 94 94 94 94 232 54 54
 54 6 6 242 242 23 23 23 23 23 33 33 33 33 33 143 143 143 143 143
 94 94 94 94 94 232 232 204 204 204 204 6 6 6 23 23 23 23 33 33
 33 33 33 33 33 230 230 230 230 232 232 232 232 232 232 232 204 204 204 204
 6 6 6 6 23 23 99 99 33 33 33 33 33 33 230 230 230 230 230 232
 232 232 232 232 70 204 204 204 204 6 6 6 6 23 99 99 99 33 33 33
 33 33 33 230 230 230 230 230 232 232 232 232 232 70 70 204 204 204 6 6
 6 6 23 99 99 99 205 205 205 205 205 205 230 230 230 230 230 232 232 232
 232 232 70 70 70 204 204 197 6 6 6 197 99 99 99 205 205 205 205 205
 205 230 230 88 88 88 232 232 232 232 135 249 70 157 197 197 197 197 197 197
 197 46 46 46 46 108 108 108 108 108 88 88 88 88 88 88 232 232 249 249
 249 249 249 197 197 197 197 197 197 197 46 46 46 46 108 108 108 108 202 88
 88 88 88 88 88 162 29 249 249 249 249 249 197 197 197 197 197 197 197 46
 46 46 46 108 108 108 108 202 202 202 88 162 162 162 162 29 249 249 249 249
 249 249 197 191 197 197 197 97 97 46 46 46 46 108 108 202 202 202 202 202
 162 162 162 162 29 29 249 249 249 249 249 191 191 197 197 197 97 97 213 213
 213 213 213 108 202 202 202 202 162 162 162 162 162 29 29 249 249 249 249 249
 249 197 197 197 197 213 213 213 213 213 213 213 213 142 142 142 142 162 162 162
 183 183 29 29 249 161 161 161 161 249 197 197 1 116 213 213 213 213 213 213
 213 213 142 142 142 142 183 183 183 183 183 29 29 161 161 161 161 161 161 1
 1 1 116 116 213 213 213 213 213 213 213 142 142 142 142 183 183 183 183 183
 183 161 161 161 161 161 161 1 1 1 1 1 1 213 213 213 213 213 213 213
 138 37 37 37 37 37 37 183 183 183 32 161 161 161 161 1 1 1 1 1
 1 1 213 213 213 213 213 213 138 138 37 37 37 37 37 37 37 37 243 32
 243 243 216 216 1 1 1 1 1 1 1 1 213 213 77 77 77 77 77 37
 37 37 37 37 37 37 243 243 243 243 243 243 216 1 1 1 1 1 1 64
 64 64 64 77 77 77 77 77 37 37 37 37 37 37 37 243 243 243 243 243
 243 245 149 149 149 1 1 64 64 64 206 206 77 77 77 77 77 37 37 37
 37 37 37 37 243 243 243 243 243 243 149 149 149 149 149 149 64 64 206 206
 206 77 77 77 77 77 77 37 37 37 37 37 250 250 243 243 243 243 243 149
 149 149 149 149 149 64 206 206 206 206 206 77 77 77 77 77 37 37 37 37
 250 250 250 250 96 96 96 96 66 149 149 149 149 149 34 206 206 206 206 206
 77 77 77 77 7 7 7 133 133 133 250 250 96 96 96 96 66 66 149 149
 149 149 149 34 125 206 206 206 195 195 195 195 7 7 7 7 133 133 133 133
 133 96 96 96 96 96 66 66 212 212 212 34 125 125 125 34 206 195 195 195
 195 7 7 7 7 133 133 133 133 133 96 96 96 96 214 214 214 214 212 212
 125 125 125 125 125 125 195 195 195 195 7 7 7 7 143 133 133 133 133 94
 96 96 214 214 214 214 87 87 87 125 125 125 91 91 195 195 195 195 195 7
 7 7 143 143 133 133 133 94 94 94 94 214 214 214 87 87 214 242 91 91
 91 91 91 91 195 195 195 195 143 143 143 143 143 143 133 94 94 94 94 94
 87 87 87 214 214 214 242 23 23 23 23 23 23 23 195 195 195 143 143 143
 143 143 143 94 94 94 94 94 94 87 87 214 214 214 214 242 23 23 23 23
 23 23 33 33 33 33 33 143 143 143 143 143 94 94 94 94 94 94 232 204
 204 204 204 6 6 23 23 23 23 23 23 33 33 33 33 33 33 143 143 143
 143 94 232 232 232 232 232 232 204 204 204 204 204 6 6 23 23 23 33 33
 33 33 33 33 33 33 230 230 230 232 232 232 232 232 232 232 232 204 204 204
 204 204 6 6 6 23 33 33 33 33 33 33 33 33 33 230 230 230 230 232
 232 232 232 232 232 70 70 204 204 204 204 6 6 6 23 217 33 33 33 33
 33 33 33 33 230 230 230 230 230 232 232 232 232 232 70 70 70 204 204 204
 6 6 6 217 217 205 205 205 205 90 205 205 205 230 230 230 230 230 232 232
 232 232 232 70 70 70 70 204 197 197 197 197 217 217 205 205 205 205 205 205
 205 205 230 230 230 230 230 232 232 232 232 70 70 70 70 197 197 197 197 197
 197 97 97 46 46 108 108 108 108 108 108 88 88 88 88 88 88 232 232 232
 70 249 249 249 197 197 197 197 197 197 97 97 46 46 108 108 108 108 108 202
 141 141 141 141 141 141 29 29 29 249 249 249 249 197 197 197 197 197 197 97
 97 97 46 108 108 108 108 108 202 202 141 141 141 141 162 29 29 29 249 249
 249 249 249 197 197 197 197 97 97 97 97 97 108 108 108 108 202 202 202 202
 141 141 162 162 29 29 29 29 249 249 249 249 197 191 197 197 97 97 97 97
 213 213 213 108 108 202 202 202 202 141 162 162 162 29 29 29 29 249 249 249
 249 249 191 197 197 97 97 97 213 213 213 213 213 213 202 202 202 202 162 162
 162 162 29 29 29 29 161 161 161 161 161 191 1 1 97 97 213 213 213 213
 213 213 213 142 142 142 142 183 183 183 183 183 29 29 161 161 161 161 161 161
 1 1 1 1 213 213 213 213 213 213 213 213 213 142 142 142 183 183 183 183
 183 183 29 161 161 161 161 161 1 1 1 1 1 1 213 213 213 213 213 213
 213 213 37 37 37 37 37 37 183 183 243 32 161 216 216 216 216 1 1 1
 1 1 222 222 213 213 213 213 213 213 213 37 37 37 37 37 37 37 37 243
 243 243 216 216 216 216 1 1 1 1 1 222 222 222 213 213 77 77 77 77
 37 37 37 37 37 37 37 243 243 243 243 243 216 216 216 1 1 1 1 1
 222 222 222 222 77 77 77 77 77 37 37 37 37 37 37 37 243 243 243 243
 243 245 245 245 149 1 1 1 64 64 64 206 206 77 77 77 77 77 77 37
 37 37 37 37 37 243 243 243 243 243 245 245 149 149 149 149 149 64 64 206
 206 206 77 77 77 77 77 77 37 37 37 37 37 250 243 243 243 243 243 245
 245 149 149 149 149 149 64 206 206 206 206 206 168 168 168 168 168 37 37 133
 133 250 250 250 96 96 96 96 96 212 212 212 212 212 212 34 206 206 206 206
 168 168 168 168 168 168 7 133 133 133 133 133 96 96 96 96 96 96 212 212
 212 212 212 212 34 125 206 206 206 168 168 168 168 47 47 7 133 133 133 133
 133 96 96 96 96 96 96 212 212 212 212 212 212 125 125 125 34 18 195 168
 47 47 47 47 7 133 133 133 133 133 133 96 96 96 96 214 214 214 214 212
 212 212 91 91 91 91 91 195 47 47 47 47 47 7 133 133 133 133 133 133
 133 96 96 214 214 214 214 87 87 212 91 91 91 91 91 91 195 195 47 47
 47 47 7 143 133 133 133 133 133 94 94 94 214 214 214 87 214 214 214 91
 91 91 91 91 91 91 195 47 47 47 146 146 143 143 133 133 133 94 94 94
 94 87 87 87 214 214 214 242 23 91 91 91 23 23 23 33 33 33 146 146
 146 143 143 133 133 94 94 94 94 94 87 87 214 214 214 214 242 23 23 23
 23 23 23 33 33 33 33 33 146 146 143 143 143 94 94 94 232 232 232 232
 87 204 204 204 6 6 23 23 23 23 23 33 33 33 33 33 33 33 146 143
 143 143 232 232 232 232 232 232 232 70 204 204 204 204 6 6 23 23 110 33
 33 33 33 33 33 33 33 26 230 230 232 232 232 232 232 232 232 70 70 204
 204 204 204 6 6 6 217 217 33 33 33 33 33 33 33 33 230 230 230 230
 232 232 232 232 232 232 70 70 70 204 204 204 6 6 6 217 217 217 33 33
 33 33 33 33 33 230 230 230 230 230 232 232 232 232 232 70 70 70 70 204
 204 6 6 225 217 217 217 205 205 205 205 205 205 205 230 230 230 230 230 232
 232 232 232 232 70 70 70 70 204 80 80 80 199 217 217 217 205 205 205 205
 205 205 205 230 230 230 230 230 232 232 232 232 70 70 70 70 70 80 80 80
 80 80 97 97 97 97 108 108 205 205 205 141 141 141 141 141 141 141 232 232
 232 70 70 70 70 80 80 80 80 80 80 97 97 97 97 108 108 108 108 108
 202 141 141 141 141 141 141 141 29 29 70 249 249 249 80 80 80 80 80 80
 97 97 97 97 108 108 108 108 202 202 202 141 141 141 141 141 141 29 29 249
 249 249 249 80 80 80 80 80 97 97 97 97 97 97 108 108 108 202 202 202
 141 141 141 141 141 29 29 29 29 29 38 249 249 80 80 80 80 97 97 97
 97 97 213 213 108 108 202 202 202 141 141 141 247 247 29 29 29 29 38 38
 38 38 80 80 80 80 97 97 97 97 213 213 213 213 213 202 202 202 141 247
 247 247 247 247 29 29 29 38 38 38 38 38 80 59 59 97 97 97 213 213
 213 213 213 213 202 142 142 11 247 247 247 247 247 29 29 161 161 38 161 161
 161 59 59 59 222 97 213 213 213 213 213 213 213 213 142 11 11 11 247 247
 247 247 247 29 161 216 216 216 216 216 1 1 222 222 222 222 213 213 213 213
 213 213 213 11 11 11 11 11 247 247 247 247 216 216 216 216 216 216 216 1
 1 222 222 222 222 222 213 213 213 213 213 213 37 37 37 37 37 37 247 247
 243 216 216 216 216 216 216 216 1 1 222 222 222 222 222 213 213 213 77 77
 77 37 37 37 37 37 37 37 243 243 243 216 216 245 245 216 216 1 1 222
 222 222 222 222 222 77 77 77 77 77 37 37 37 37 37 37 37 243 243 243
 243 245 245 245 245 245 1 1 222 222 222 222 222 222 168 168 168 168 77 77
 37 37 37 37 37 243 243 243 243 243 245 245 245 245 212 212 149 24 64 64
 206 206 206 168 168 168 168 168 168 37 37 37 37 37 243 243 243 243 243 245
 245 245 212 212 212 212 212 212 206 206 206 206 168 168 168 168 168 168 168 37
 133 133 133 250 96 96 96 243 96 245 245 212 212 212 212 212 212 206 206 206
 168 168 168 168 168 168 168 168 133 133 133 133 133 96 96 96 96 96 96 212
 212 212 212 212 212 212 125 206 206 18 168 168 168 74 47 47 47 133 133 133
 133 133 96 96 96 96 96 96 212 212 212 212 212 212 212 125 125 18 18 18
 168 47 47 47 47 47 133 133 133 133 133 133 96 96 96 96 214 214 214 212
 212 212 212 212 91 91 91 18 18 47 47 47 47 47 47 133 133 133 133 133
 133 133 96 96 214 214 214 214 87 87 212 91 91 91 91 91 91 18 47 47
 47 47 47 146 146 133 133 133 133 133 133 94 96 214 214 87 87 214 214 214
 91 91 91 91 91 91 91 47 47 47 47 146 146 146 133 133 133 133 133 94
 94 94 87 87 87 214 214 214 214 91 91 91 91 23 110 110 33 47 47 146
 146 146 146 133 133 133 133 133 94 94 232 232 87 214 214 214 214 214 23 23
 23 23 23 110 33 33 33 33 33 146 146 146 133 133 133 232 232 232 232 232
 232 232 204 204 204 214 214 23 23 23 23 110 33 33 33 33 33 33 33 146
 26 26 26 232 232 232 232 232 232 232 70 204 204 204 204 6 6 225 110 110
 110 33 33 33 33 33 152 152 26 26 26 26 53 53 232 232 232 232 70 70
 70 204 204 204 6 225 225 217 217 217 217 33 33 33 33 152 152 26 26 26
 26 53 53 232 232 232 232 70 70 70 70 204 204 6 225 225 217 217 217 217
 33 33 33 33 152 152 26 26 26 230 53 232 232 232 232 232 70 70 70 70
 204 204 80 225 225 217 217 217 217 12 205 205 205 152 152 230 230 230 230 230
 232 232 232 232 70 70 70 70 70 70 80 80 199 199 217 217 217 217 12 205
 205 205 205 152 230 230 230 230 230 232 232 232 232 70 70 70 70 70 80 80
 80 80 199 199 217 217 217 12 108 51 205 205 141 141 141 141 141 141 141 232
 232 232 70 70 70 70 80 80 80 80 80 80 97 97 97 97 108 108 108 108
 108 141 141 141 141 141 141 141 141 15 15 70 70 249 70 80 80 80 80 80
 97 97 97 97 97 97 108 108 108 202 202 141 141 55 141 141 141 141 29 29
 249 38 38 38 80 80 80 80 80 97 97 97 97 97 97 108 108 108 202 202
 141 141 141 141 141 141 141 29 29 29 38 38 38 38 80 80 80 80 97 97
 97 97 97 97 213 108 108 202 202 141 141 141 141 247 247 247 29 29 29 38
 38 38 38 80 80 80 80 97 97 97 97 97 213 213 213 213 126 202 141 141
 247 247 247 247 247 29 29 38 38 38 38 38 38 59 59 59 59 97 97 97
 213 213 213 213 213 126 137 11 11 247 247 247 247 247 247 29 38 38 38 38
 38 38 59 59 59 59 59 213 213 213 213 213 213 213 137 11 11 11 11 247
 247 247 247 247 247 38 216 216 216 216 216 59 59 59 222 222 222 213 213 213
 213 213 213 137 11 11 11 11 11 247 247 247 247 216 216 216 216 216 216 216
 59 59 59 222 222 222 222 213 213 213 213 213 11 11 11 11 11 11 11 247
 247 243 216 216 216 216 216 216 216 59 59 222 222 222 222 222 213 213 213 213
 168 168 239 239 239 239 239 239 239 243 243 243 216 245 245 245 216 216 1 222