# vtk DataFile Version 2.0
Data set from ImportExport Version 6.5.171.b0b162591
ASCII

DATASET RECTILINEAR_GRID
DIMENSIONS 30 30 30
X_COORDINATES 30 float
-1.250000 1.250000 3.750000 6.250000 8.750000 11.250000 13.750000 16.250000 18.750000 21.250000 23.750000 26.250000 28.750000 31.250000 33.750000 36.250000 38.750000 41.250000 43.750000 46.250000 48.750000 
51.250000 53.750000 56.250000 58.750000 61.250000 63.750000 66.250000 68.750000 71.250000 
Y_COORDINATES 30 float
-1.250000 1.250000 3.750000 6.250000 8.750000 11.250000 13.750000 16.250000 18.750000 21.250000 23.750000 26.250000 28.750000 31.250000 33.750000 36.250000 38.750000 41.250000 43.750000 46.250000 48.750000 
51.250000 53.750000 56.250000 58.750000 61.250000 63.750000 66.250000 68.750000 71.250000 
Z_COORDINATES 30 float
-1.250000 1.250000 3.750000 6.250000 8.750000 11.250000 13.750000 16.250000 18.750000 21.250000 23.750000 26.250000 28.750000 31.250000 33.750000 36.250000 38.750000 41.250000 43.750000 46.250000 48.750000 
51.250000 53.750000 56.250000 58.750000 61.250000 63.750000 66.250000 68.750000 71.250000 
CELL_DATA 24389
SCALARS FeatureIds int 1
LOOKUP_TABLE default
 196 196 196 196 181 181 181 118 118 118 118 118 118 118 144 144 144 5 5 5
 5 5 5 37 37 37 37 37 37 241 241 241 241 181 181 181 181 118 118 118
 118 118 118 144 144 144 144 5 5 5 5 5 37 37 37 37 37 37 241 241
 241 241 181 181 181 181 181 118 118 118 118 140 144 144 144 144 5 5 5 5
 37 37 37 37 37 37 37 150 241 241 241 181 181 181 181 181 118 118 118 140
 140 140 144 144 144 10 10 10 10 37 37 37 37 37 37 150 150 187 187 187
 181 181 181 181 181 158 118 118 140 140 140 144 144 10 10 10 10 10 10 37
 37 37 37 150 150 150 187 187 187 187 181 174 174 158 158 158 158 140 140 140
 144 10 10 10 10 10 10 10 10 37 37 150 150 150 219 219 219 187 174 174
 174 174 158 158 158 158 158 140 140 144 10 10 10 10 10 10 10 10 7 7
 150 150 150 219 219 219 187 174 174 174 174 158 158 158 158 158 136 136 136 10
 10 10 10 10 10 92 92 7 7 7 150 150 219 219 219 178 178 178 178 178
 158 158 158 158 158 136 136 136 164 164 86 10 10 92 92 92 92 7 7 150
 150 219 219 178 178 178 178 178 178 17 17 17 17 17 136 56 56 164 164 164
 164 86 92 92 92 92 7 7 7 150 219 219 178 178 178 178 178 178 17 17
 17 17 17 56 56 56 164 164 164 164 164 92 92 92 92 7 7 7 150 167
 167 178 178 178 178 178 178 165 165 165 165 56 56 56 56 56 164 164 164 164
 92 92 92 92 7 7 7 7 167 167 167 178 178 178 178 165 165 165 165 165
 56 56 56 56 56 56 164 164 164 77 146 146 146 7 7 7 167 167 167 167
 167 41 41 41 165 165 165 165 165 56 56 56 56 56 56 56 56 77 77 146
 146 146 146 146 167 167 167 167 167 167 41 41 41 165 165 165 165 165 56 56
 56 56 56 56 56 77 77 77 146 146 146 146 146 167 167 167 167 167 167 41
 41 41 170 165 165 165 165 56 56 56 56 56 56 56 77 77 77 77 146 146
 146 146 167 167 167 167 167 167 41 41 41 170 170 170 22 22 22 56 56 56
 56 56 56 77 77 77 146 146 146 146 146 167 167 167 167 167 249 249 170 170
 170 170 170 22 22 22 22 56 56 56 56 235 235 77 77 146 146 146 146 146
 167 167 148 148 148 148 249 170 170 170 170 170 22 22 22 133 133 56 123 123
 223 223 223 77 39 39 39 39 245 148 148 148 148 148 148 148 170 170 87 87
 87 22 22 22 133 95 95 123 123 223 223 223 223 39 39 39 39 245 148 148
 148 148 148 148 148 170 87 87 87 87 87 22 22 95 95 95 123 123 223 223
 223 223 39 39 39 245 245 245 148 148 125 125 148 148 148 87 87 87 87 87
 87 95 95 95 95 198 123 123 223 223 223 223 245 245 245 245 245 148 125 125
 125 125 125 125 87 87 87 87 87 87 95 95 95 198 198 198 123 223 223 223
 223 245 245 245 245 245 148 125 125 125 125 125 199 199 87 87 87 87 87 87
 95 198 198 198 198 198 5 5 155 155 155 155 245 245 245 111 125 125 125 125
 199 199 199 199 199 199 87 87 87 95 198 198 198 198 5 5 5 155 155 155
 155 155 111 111 111 54 125 196 196 199 199 199 199 199 199 199 199 87 198 198
 198 198 5 5 5 5 155 155 155 155 155 111 111 111 54 196 196 196 196 199
 199 199 199 199 199 199 199 198 198 198 5 5 5 5 5 5 155 155 155 155
 111 111 111 54 196 196 196 196 199 199 199 199 199 199 118 118 118 144 5 5
 5 5 5 5 5 155 155 155 155 111 111 111 196 196 196 196 196 196 199 199
 199 199 118 118 118 118 144 144 5 5 5 5 5 5 5 155 155 155 111 111
 111 196 196 196 196 196 181 181 118 118 118 118 118 118 118 144 144 144 5 5
 5 5 5 5 5 37 37 37 37 37 241 241 241 196 181 181 181 181 118 118
 118 118 118 118 144 144 144 144 5 5 5 5 5 5 37 37 37 37 37 241
 241 241 241 181 181 181 181 51 118 118 118 118 118 144 144 144 144 5 5 5
 5 5 37 37 37 37 37 150 150 241 241 241 181 181 181 181 51 55 118 118
 118 118 144 144 144 144 10 10 10 10 10 37 37 37 37 150 150 150 187 187
 187 181 181 181 181 51 51 103 103 103 140 140 144 144 10 10 10 10 10 10
 10 37 37 150 150 150 150 150 187 187 187 181 181 181 158 158 158 103 103 103
 140 144 10 10 10 10 10 10 10 10 150 150 150 150 150 150 219 219 187 187
 174 174 158 158 158 158 158 103 103 103 103 10 10 10 10 10 10 10 10 150
 150 150 150 150 219 219 219 187 174 174 174 158 158 158 158 158 103 136 136 136
 10 10 10 10 10 10 10 92 7 7 150 150 150 219 219 219 178 178 178 178
 178 158 158 158 158 158 136 136 56 86 86 86 86 86 86 92 92 92 7 150
 150 150 150 219 178 178 178 178 178 178 17 17 17 17 17 136 56 56 56 86
 86 86 86 86 92 92 92 7 7 150 150 150 219 178 178 178 178 178 178 17
 17 17 17 17 56 56 56 56 56 86 86 86 86 92 92 92 7 7 150 150
 167 167 178 178 178 178 178 178 165 165 165 165 56 56 56 56 56 56 56 86
 86 86 92 92 92 7 7 7 150 167 167 48 48 48 48 178 165 165 165 165
 165 56 56 56 56 56 56 56 56 77 77 77 151 151 7 7 167 167 167 167
 167 48 48 48 48 165 165 165 165 165 56 56 56 56 56 56 56 56 77 77
 77 151 151 151 167 167 167 167 167 167 167 48 48 170 165 165 165 165 165 56
 56 56 56 56 56 56 56 77 77 77 151 151 151 167 167 167 167 167 167 167
 167 170 170 170 170 165 165 165 56 56 56 56 56 56 56 77 77 77 77 151
 151 151 151 167 167 167 167 167 167 167 170 170 170 170 170 170 22 22 56 56
 56 56 56 38 235 77 77 77 151 151 151 167 167 167 167 167 167 167 167 170
 170 170 170 170 22 22 22 22 56 56 56 56 235 235 235 235 235 39 39 39
 167 167 167 148 148 148 148 148 170 170 170 170 170 22 22 22 22 22 230 123
 123 123 235 235 235 39 39 39 39 245 148 148 148 148 148 148 148 170 170 170
 170 22 22 22 22 22 95 123 123 123 123 123 235 39 39 39 39 245 245 148
 148 148 148 148 148 148 170 170 170 87 22 22 22 22 22 95 123 123 123 123
 123 223 39 39 39 245 245 245 245 148 125 125 125 148 148 170 87 87 87 87
 87 22 22 95 95 123 123 123 123 123 223 223 39 245 245 245 245 245 148 125
 125 125 125 125 125 87 87 87 87 87 87 95 95 198 198 123 123 123 123 223
 223 39 245 245 245 245 245 125 125 125 125 125 125 199 199 199 87 87 87 87
 87 95 198 198 198 123 123 5 5 155 155 155 155 245 245 245 125 125 125 125
 125 125 199 199 199 199 199 87 87 87 95 198 198 198 5 5 5 5 155 155
 155 155 155 111 111 111 54 54 54 196 196 199 199 199 199 199 199 199 199 198
 198 58 58 5 5 5 5 155 155 155 155 155 111 111 111 54 54 196 196 196
 199 199 199 199 199 199 199 199 58 58 58 58 5 5 5 5 5 155 155 155
 155 111 111 111 54 196 196 196 196 196 199 199 199 199 199 118 118 118 58 58
 58 5 5 5 5 5 155 155 155 155 155 111 111 54 196 196 196 196 196 199
 199 199 199 118 118 118 118 144 144 144 5 5 5 5 5 5 155 155 155 155
 111 111 206 196 196 196 196 181 181 64 64 64 64 118 118 118 144 144 144 58
 5 5 5 5 5 5 37 37 37 37 37 241 241 241 241 181 181 181 51 64
 64 64 64 64 64 144 144 144 144 5 5 5 5 5 5 37 37 37 37 37
 241 241 241 241 181 181 181 51 51 55 118 118 118 64 144 144 144 144 5 5
 5 5 5 147 147 147 147 150 150 150 241 241 241 181 181 181 51 51 55 55
 118 118 118 144 144 144 144 10 10 10 10 10 147 147 147 147 150 150 150 150
 187 187 181 181 181 51 51 51 103 103 103 103 144 144 144 10 10 10 10 10
 10 147 147 147 150 150 150 150 150 187 187 181 181 181 51 51 51 103 103 103
 103 103 144 10 10 10 10 10 10 10 10 150 150 150 150 150 150 150 219 187
 187 181 181 158 158 158 158 103 103 103 103 103 10 10 10 10 10 10 10 215
 215 150 150 150 150 150 219 219 219 178 178 178 158 158 158 158 158 103 103 103
 103 86 86 86 86 86 86 86 215 215 215 150 150 150 150 219 219 178 178 178
 178 178 158 158 158 158 103 103 103 86 86 86 86 86 86 86 86 215 215 215
 150 150 150 150 219 219 178 178 178 178 178 17 17 17 17 17 17 56 56 86
 86 86 86 86 86 215 215 215 215 150 150 150 150 69 178 178 178 178 178 178
 17 17 17 17 17 56 56 56 56 86 86 86 86 86 86 215 215 215 215 150
 150 69 69 48 48 178 178 178 178 165 165 165 165 56 56 56 56 56 56 86
 86 86 86 86 215 215 215 215 69 69 69 48 48 48 48 48 178 165 165 165
 165 165 56 56 56 56 56 56 56 86 86 77 151 151 151 226 226 167 167 167
 167 48 48 48 48 48 165 165 165 165 165 56 56 56 56 56 56 56 56 77
 77 151 151 151 151 151 167 167 167 167 167 48 48 48 170 170 165 165 165 165
 56 56 56 56 56 56 56 77 77 77 151 151 151 151 151 167 167 167 167 167
 167 48 170 170 170 170 170 165 165 56 56 56 56 56 56 38 77 77 77 151
 151 151 151 151 167 167 167 167 167 167 170 170 170 170 170 170 170 170 22 56
 56 56 56 38 38 235 235 77 235 151 151 151 151 167 167 167 167 167 167 170
 170 170 170 170 170 170 22 22 22 230 230 230 38 38 235 235 235 235 235 151
 151 151 167 167 148 148 148 148 170 170 170 170 170 170 22 22 22 22 230 230
 123 123 123 235 235 235 235 39 39 39 245 148 148 148 148 148 148 148 170 170
 170 170 170 22 22 22 22 230 230 123 123 123 123 235 235 39 39 39 245 245
 148 148 148 148 148 148 148 170 170 170 170 22 22 22 22 22 230 123 123 123
 123 123 235 235 39 39 245 245 245 245 148 148 125 148 148 148 170 170 170 87
 22 22 22 22 95 123 123 123 123 123 123 123 223 39 245 245 245 245 245 148
 125 125 125 125 125 125 114 114 87 87 87 87 22 95 123 123 123 123 123 123
 123 223 245 245 245 245 245 245 125 125 125 125 125 125 199 199 199 199 87 87
 114 114 95 198 123 123 123 123 123 5 155 155 155 155 245 245 245 125 54 54
 54 54 54 199 199 199 199 199 114 114 114 95 198 198 123 123 5 5 5 155
 155 155 155 155 155 54 54 54 54 54 54 54 199 199 199 199 199 199 199 199
 58 58 58 58 58 5 5 5 5 155 155 155 155 155 54 54 54 54 54 196
 196 199 199 199 199 199 199 199 58 58 58 58 58 58 5 5 5 5 155 155
 155 155 155 54 54 54 54 196 196 196 196 199 199 199 199 199 118 118 58 58
 58 58 58 58 5 5 5 5 155 155 155 155 54 54 54 54 196 196 196 196
 199 199 199 199 118 118 118 118 144 58 58 58 5 5 5 5 5 155 155 155
 155 54 54 206 128 128 128 128 128 181 64 64 64 64 64 64 64 144 144 58
 58 58 5 5 5 5 5 116 116 116 100 206 128 128 128 128 181 181 181 55
 55 64 64 64 64 64 144 144 144 58 58 5 5 5 5 5 116 147 147 147
 206 128 128 241 181 181 181 181 51 55 55 64 64 64 64 144 144 144 144 58
 5 5 5 5 147 147 147 147 147 150 150 150 241 181 181 181 181 51 51 55
 55 64 64 64 144 144 144 144 10 10 10 10 147 147 147 147 147 147 150 150
 150 187 187 181 181 181 51 51 51 103 103 103 103 103 144 144 10 10 10 10
 10 10 147 147 147 147 150 150 150 150 187 187 181 181 181 51 51 51 103 103
 103 103 103 103 10 10 10 10 10 10 10 215 147 147 150 150 150 150 150 150
 187 181 181 181 51 51 158 103 103 103 103 103 103 23 23 10 10 10 10 10
 215 215 233 233 150 150 150 150 219 219 178 178 178 158 158 158 158 103 103 103
 103 103 86 86 86 86 86 86 215 215 215 215 233 150 150 150 150 219 178 178
 178 178 178 158 158 158 158 103 103 103 86 86 86 86 86 86 86 215 215 215
 215 233 150 150 150 150 219 178 178 178 178 178 17 17 17 17 17 216 56 56
 90 86 86 86 86 86 215 215 215 215 215 233 150 69 69 69 178 178 178 178
 178 17 17 17 17 216 56 56 56 90 90 86 86 86 86 215 215 215 215 215
 233 150 69 69 48 48 48 178 178 178 165 165 165 165 56 56 56 56 90 90
 90 86 86 86 226 215 215 215 215 69 69 69 69 48 48 48 48 48 165 165
 165 165 165 56 56 56 56 56 90 90 90 86 226 226 226 226 226 226 69 69
 69 69 48 48 48 48 48 165 165 165 165 165 56 56 56 56 56 56 56 56
 226 226 226 226 226 226 226 69 69 69 69 48 48 48 48 170 170 170 165 135
 135 135 56 56 56 56 56 38 38 77 151 151 151 151 151 166 166 69 167 167
 167 48 48 170 170 170 170 170 135 135 135 135 56 56 56 56 38 38 235 151
 151 151 151 151 166 166 167 167 167 167 167 170 170 170 170 170 170 170 135 135
 135 56 56 38 38 38 38 235 235 151 151 151 151 166 166 167 167 167 167 167
 170 170 170 170 170 170 170 22 72 72 230 230 230 38 38 38 235 235 235 235
 151 151 166 166 167 148 148 148 148 170 170 170 170 170 170 170 22 72 72 230
 230 230 38 38 38 235 235 235 235 39 245 245 148 148 148 148 148 148 170 170
 170 170 170 170 22 22 72 72 230 230 123 123 123 38 235 235 235 39 39 245
 245 148 148 148 148 148 148 148 170 170 170 170 170 22 22 72 72 230 230 123
 123 123 123 235 235 39 39 245 245 245 245 148 148 148 148 148 148 170 170 96
 96 96 96 22 72 72 230 123 123 123 123 123 123 235 39 245 245 245 245 245
 148 125 125 125 125 125 114 114 114 114 114 114 114 114 72 123 123 123 123 123
 123 123 43 43 245 245 245 245 245 125 54 54 54 54 54 114 114 114 114 114
 114 114 114 114 123 123 123 123 123 123 5 5 155 155 155 245 245 54 54 54
 54 54 54 54 54 114 114 114 114 114 114 114 114 58 58 58 123 123 5 5
 5 155 155 155 155 59 54 54 54 54 54 54 54 199 199 199 199 114 114 114
 114 58 58 58 58 58 58 5 5 5 155 155 155 155 155 54 54 54 54 54
 54 196 199 199 199 199 199 199 64 58 58 58 58 58 58 58 5 5 5 116
 116 116 155 59 54 54 54 54 54 196 196 196 199 199 199 199 64 64 64 58
 58 58 58 58 58 5 5 5 116 116 116 116 59 59 54 54 54 196 196 196
 196 199 199 199 64 64 64 64 64 58 58 58 58 58 5 5 5 5 116 116
 116 59 59 54 206 128 128 128 128 128 128 64 64 64 64 64 64 64 152 152
 152 58 58 58 5 5 5 116 116 116 116 100 206 128 128 128 128 128 128 51
 51 55 64 64 64 64 64 152 152 152 152 58 5 5 5 5 116 116 147 147
 147 206 128 128 128 128 128 181 51 51 55 55 64 64 64 64 152 152 152 152
 152 5 5 5 147 147 147 147 147 147 147 150 128 128 128 181 181 51 51 51
 55 55 64 64 64 152 152 152 152 152 10 10 147 147 147 147 147 147 147 147
 150 171 171 171 181 181 51 51 51 51 103 103 103 103 152 152 152 152 10 10
 10 10 147 147 147 147 147 147 150 150 171 171 171 181 181 51 51 51 51 103
 103 103 103 103 152 23 23 23 23 10 10 147 147 147 147 233 233 150 150 171
 171 171 181 181 66 51 51 158 103 103 103 103 103 103 23 23 23 23 23 23
 215 215 233 233 233 233 233 150 171 171 171 178 178 178 66 66 66 103 103 103
 103 103 23 23 23 23 23 86 86 215 215 215 215 233 233 233 233 150 219 178
 178 178 178 178 66 158 158 103 103 216 216 23 23 23 86 86 86 86 215 215
 215 215 233 233 233 233 69 69 178 178 178 178 178 17 17 17 216 216 216 216
 90 90 90 86 86 86 86 215 215 215 215 215 233 233 69 69 69 69 178 178
 178 178 17 17 17 216 216 216 90 90 90 90 90 86 86 86 215 215 215 215
 215 233 69 69 69 69 48 48 178 178 178 165 165 216 216 216 216 216 90 90
 90 90 90 86 226 226 226 226 215 215 18 69 69 69 69 48 48 48 48 48
 165 165 212 135 135 216 56 90 90 90 90 90 226 226 226 226 226 226 226 18
 69 69 69 69 48 48 48 48 170 165 212 212 135 135 56 56 56 90 90 90
 90 226 226 226 226 226 226 226 18 69 69 69 69 48 48 48 170 170 170 135
 135 135 135 135 56 56 56 38 38 38 38 226 226 226 226 226 166 166 69 69
 69 69 48 48 170 170 170 170 170 135 135 135 135 56 56 38 38 38 38 38
 151 151 151 151 151 166 166 166 69 69 69 69 170 170 170 170 170 170 135 135
 135 135 135 38 38 38 38 38 38 235 151 151 151 151 166 166 166 167 167 167
 170 170 170 170 170 170 170 170 135 72 72 72 230 230 38 38 38 38 235 235
 235 151 151 166 166 166 148 148 148 148 170 170 170 170 170 170 170 72 72 72
 230 230 230 38 38 38 38 235 235 235 151 151 166 166 148 148 148 148 148 170
 170 170 170 170 170 170 72 72 72 230 230 230 123 38 38 38 38 235 235 39
 245 245 148 148 148 148 148 148 148 170 170 170 96 96 96 72 72 72 230 230
 123 123 123 123 38 38 235 39 245 245 245 245 148 148 148 148 148 148 170 170
 96 96 96 96 96 72 72 230 123 123 123 123 123 38 43 43 43 245 245 245
 245 148 125 125 125 125 125 114 114 114 114 96 96 96 96 72 230 123 123 123
 123 123 123 43 43 43 43 245 245 59 125 54 54 54 54 54 114 114 114 114
 114 114 114 114 72 123 123 123 123 123 123 43 43 43 43 43 43 59 59 54
 54 54 54 54 54 54 114 114 114 114 114 114 114 197 197 123 123 123 123 5
 5 43 43 43 43 43 59 59 54 54 54 54 54 54 54 114 114 114 114 114
 114 114 197 58 58 58 58 58 58 5 43 43 116 116 116 59 59 59 54 54
 54 54 54 54 199 199 199 114 114 114 64 58 58 58 58 58 58 58 5 116
 116 116 116 116 59 59 59 54 54 54 54 196 196 199 199 199 64 64 64 64
 58 58 58 58 58 58 58 5 116 116 116 116 116 59 59 59 54 54 54 196
 128 128 199 104 199 64 64 64 64 64 58 58 58 58 58 58 5 5 116 116
 116 116 59 59 59 206 128 128 128 128 128 128 104 104 64 64 64 64 152 152
 152 152 152 58 58 5 5 116 116 116 116 100 100 206 206 128 128 128 128 128
 128 104 64 64 64 64 64 152 152 152 152 152 58 58 248 248 116 116 147 147
 147 206 206 206 128 128 128 128 128 51 51 55 55 64 64 64 152 152 152 152
 152 152 152 248 248 147 147 147 147 147 147 206 206 128 128 128 128 128 51 51
 51 55 55 64 64 152 152 152 152 152 81 23 23 248 147 147 147 147 147 147
 147 171 171 171 171 128 181 51 51 51 51 103 103 103 103 152 152 152 23 23
 23 23 23 147 147 147 147 147 147 150 171 171 171 171 171 66 66 66 66 51
 103 103 103 103 105 105 23 23 23 23 23 23 147 147 147 147 233 233 233 171
 171 171 171 171 66 66 66 66 66 103 103 103 103 105 105 23 23 23 23 23
 23 215 215 233 233 233 233 233 233 171 171 171 171 66 66 66 66 66 66 103
 103 105 105 105 23 23 23 23 23 23 215 215 215 233 233 233 233 233 171 171
 171 4 178 66 66 66 66 66 216 216 216 216 105 23 23 23 23 23 23 215
 215 215 215 233 233 233 233 233 69 69 178 178 66 66 66 66 66 216 216 216
 216 90 90 90 90 94 94 94 215 215 215 215 215 233 233 69 69 69 69 69
 178 66 66 66 66 216 216 216 216 216 90 90 90 90 94 94 94 215 215 215
 215 215 18 69 69 69 69 30 30 30 14 14 66 216 216 216 216 216 216 90
 90 90 90 90 226 226 226 226 226 215 18 18 69 69 69 69 30 30 30 30
 14 212 212 212 212 216 216 216 90 90 90 90 90 226 226 226 226 226 226 18
 18 69 69 69 69 30 30 30 30 14 212 212 212 212 135 216 216 90 90 90
 90 90 226 226 226 226 226 226 18 18 69 69 69 69 30 30 30 170 170 170
 212 212 135 135 135 216 56 90 38 38 38 38 226 226 226 226 226 166 166 166
 69 69 69 30 30 170 170 170 170 135 135 135 135 135 135 56 38 38 38 38
 38 38 226 226 226 166 166 166 166 69 69 69 69 170 170 170 170 170 170 135
 135 135 135 135 38 38 38 38 38 38 38 151 151 151 166 166 166 166 69 69
 69 69 170 170 170 170 170 170 135 135 72 72 230 230 230 38 38 38 38 38
 235 235 151 166 166 166 166 148 148 148 148 170 170 170 170 170 170 170 72 72
 72 230 230 230 38 38 38 38 38 38 235 151 166 166 166 166 148 148 148 148
 170 170 170 170 170 96 96 72 72 72 230 230 230 230 38 38 38 38 38 157
 157 157 157 157 148 148 148 148 148 170 170 170 96 96 96 96 72 72 72 230
 230 230 123 123 38 38 38 38 157 157 157 157 157 157 148 148 148 148 170 170
 96 96 96 96 96 96 72 72 230 230 123 123 123 123 38 43 43 43 157 157
 157 157 157 125 125 125 125 97 96 96 96 96 96 96 96 96 72 230 123 123
 123 123 123 43 43 43 43 43 157 157 59 59 54 54 54 54 97 114 114 114
 114 114 114 114 96 197 197 197 123 123 123 213 43 43 43 43 43 43 59 59
 59 54 54 54 54 97 97 114 114 114 114 114 114 114 197 197 197 197 123 213
 213 213 43 43 43 43 59 59 59 59 54 54 54 54 54 97 114 114 114 114
 114 114 114 197 197 197 197 58 213 213 213 43 43 43 116 59 59 59 59 54
 54 54 54 54 54 114 114 114 114 114 114 114 197 197 197 58 58 58 213 213
 116 116 116 116 59 59 59 59 54 54 54 128 128 128 104 104 104 104 195 195
 195 58 58 58 58 58 58 58 213 116 116 116 116 116 59 59 59 128 128 128
 128 128 128 104 104 104 104 64 64 64 152 152 152 58 58 58 58 5 116 116
 116 116 116 59 59 59 206 206 128 128 128 128 104 104 104 104 104 65 65 65
 152 152 152 152 58 248 248 248 116 116 116 147 100 100 206 206 206 128 128 128
 128 104 104 104 104 65 65 65 65 152 152 152 152 81 248 248 248 248 116 147
 147 100 100 206 206 206 128 128 128 128 128 104 104 104 65 65 65 65 152 152
 152 152 81 81 248 248 248 147 147 147 147 100 206 206 128 128 128 128 128 66
 51 51 55 55 65 65 65 15 15 15 81 81 81 81 248 147 147 147 147 147
 147 206 171 171 171 171 128 66 66 66 66 66 103 103 103 65 15 15 15 23
 23 23 23 23 147 147 147 147 147 147 233 171 171 171 171 171 66 66 66 66
 66 66 103 103 105 105 105 105 23 23 23 23 23 23 126 126 126 233 233 233
 171 171 171 171 4 66 66 66 66 66 66 103 105 105 105 105 105 23 23 23
 23 23 23 215 233 233 233 233 233 233 171 171 171 4 66 66 66 66 66 66
 66 105 105 105 105 105 23 23 23 23 23 215 215 215 233 233 233 233 233 171
 4 4 4 4 66 66 66 66 66 216 216 105 105 105 105 23 23 23 23 23
 215 215 215 215 233 233 233 233 69 4 4 4 4 66 66 66 66 131 216 216
 216 216 216 90 94 94 94 94 94 215 215 215 215 215 233 233 69 69 69 69
 4 4 66 66 66 131 131 216 216 216 216 216 90 90 94 94 94 94 215 215
 215 215 215 18 18 69 69 69 30 30 14 14 14 14 131 131 216 216 216 216
 216 90 90 90 94 94 226 113 113 113 18 18 18 18 69 69 69 30 30 14
 14 14 14 6 6 6 216 216 216 216 90 90 90 90 226 226 113 113 113 18
 18 18 18 69 69 69 30 30 14 14 14 14 212 212 212 6 216 216 216 90
 90 90 90 226 226 226 113 113 18 18 18 18 69 69 69 30 30 14 14 14
 212 212 212 212 135 135 216 216 90 38 38 38 38 226 226 113 113 18 18 18
 18 69 69 69 30 30 170 170 170 170 212 135 135 135 135 135 38 38 38 38
 38 38 38 226 226 113 166 166 166 166 69 69 69 69 30 170 170 170 170 135
 135 135 135 135 135 38 38 38 38 38 38 38 38 151 151 166 166 166 166 69
 69 69 69 170 170 170 170 170 170 135 135 72 72 230 230 230 38 38 38 38
 38 38 235 151 166 166 166 166 69 69 69 218 218 218 218 170 170 170 135 72
 72 72 230 230 230 221 38 38 38 38 38 38 157 157 157 166 166 148 148 148
 218 218 218 218 218 170 96 96 72 72 72 230 230 230 221 221 38 38 38 38
 157 157 157 157 157 157 78 148 148 218 218 218 218 218 96 96 96 96 72 72
 230 230 230 221 221 38 38 38 157 157 157 157 157 157 157 78 148 97 218 218
 218 218 96 96 96 96 96 72 72 230 230 230 123 123 123 38 43 157 157 157
 157 157 157 157 125 97 97 97 97 218 96 96 96 96 96 96 96 72 230 123
 123 123 123 213 43 43 43 43 157 157 157 157 157 54 54 97 97 97 97 114
 114 114 114 96 96 96 197 197 197 197 123 213 213 213 43 43 43 43 157 157
 59 59 54 54 97 97 97 97 114 114 114 114 114 114 114 197 197 197 197 197
 213 213 213 43 43 43 43 59 59 59 59 59 54 54 97 97 97 114 114 114
 114 114 114 114 197 197 197 197 197 213 213 213 43 43 43 43 59 59 59 59
 59 54 54 128 97 97 104 104 104 195 195 195 195 197 197 197 197 197 213 213
 213 213 116 116 116 59 59 59 59 59 206 128 128 128 128 104 104 104 104 195
 195 195 197 197 197 197 58 213 213 213 116 116 116 116 59 59 59 59 206 206
 128 128 128 128 104 104 104 104 195 195 65 65 152 152 152 58 58 213 213 116
 116 116 116 116 59 59 59 206 206 128 128 128 128 104 104 104 104 104 65 65
 65 65 152 152 152 81 248 248 248 73 73 73 100 100 100 206 206 206 128 128
 128 128 104 104 104 104 65 65 65 65 65 152 152 81 81 81 248 248 248 73
 73 100 100 100 206 206 206 128 128 128 128 104 104 104 104 65 65 65 65 15
 15 15 81 81 81 248 248 248 73 73 147 100 100 100 206 206 128 128 128 128
 66 104 104 104 65 65 65 65 15 15 15 81 81 81 81 248 248 73 147 147
 100 100 100 171 171 171 171 128 66 66 66 66 66 66 117 117 117 15 15 15
 81 81 81 23 23 248 126 126 126 126 126 100 171 171 171 171 171 66 66 66
 66 66 66 117 117 117 105 105 105 105 23 23 23 23 23 126 126 126 126 126
 233 171 171 171 171 4 66 66 66 66 66 66 117 117 105 105 105 105 105 23
 23 23 23 23 126 126 126 126 233 233 171 171 171 4 4 4 66 66 66 66
 66 66 117 105 105 105 105 23 23 23 23 23 23 126 126 126 233 233 233 99
 99 4 4 4 4 66 66 66 66 66 66 105 105 105 105 105 23 23 23 23
 23 23 215 215 200 233 233 233 99 99 4 4 4 4 66 66 66 66 131 131
 216 216 216 105 105 94 94 94 94 94 215 215 215 200 200 233 233 99 99 4
 4 4 4 4 66 66 131 131 131 216 216 216 216 209 209 94 94 94 94 94
 215 200 200 18 18 18 69 69 69 69 14 14 14 14 14 131 131 131 216 216
 216 216 209 209 209 94 94 113 113 113 113 18 18 18 18 18 69 69 30 14
 14 14 14 14 6 6 6 216 216 216 216 90 90 209 209 94 113 113 113 113
 18 18 18 18 18 69 69 30 14 14 14 14 14 6 6 6 6 216 216 216
 90 90 90 90 226 113 113 113 113 18 18 18 18 18 69 69 30 14 14 14
 14 14 212 212 6 6 6 216 216 90 90 38 38 38 113 113 113 113 18 18
 18 18 69 69 69 69 30 14 14 14 212 212 212 212 135 135 135 216 38 38
 38 38 38 113 113 113 113 18 18 18 18 69 69 69 69 30 170 170 170 170
 135 135 135 135 135 135 230 38 38 38 38 38 38 38 113 113 18 18 18 18
 69 69 69 69 218 218 218 218 218 222 135 135 72 72 230 230 221 38 38 38
 38 38 38 235 113 18 18 166 18 69 69 69 218 218 218 218 218 218 218 222
 72 72 72 230 230 221 221 221 38 38 38 38 38 157 157 157 78 78 78 78
 218 218 218 218 218 218 218 96 96 72 72 72 230 230 221 221 221 221 38 38
 38 157 157 157 157 78 78 78 78 218 218 218 218 218 218 218 96 96 96 72
 72 230 230 221 221 221 221 38 38 157 157 157 157 157 157 157 78 78 97 97
 218 218 218 218 96 96 96 96 72 72 230 230 98 98 98 98 38 43 157 157
 157 157 157 157 157 97 97 97 97 97 218 218 96 96 96 96 96 96 197 230
 230 98 98 98 213 213 43 43 157 157 157 157 157 157 97 97 97 97 97 97
 97 96 96 96 96 96 96 197 197 197 197 213 213 213 213 43 43 43 157 157
 157 157 59 97 97 97 97 97 97 97 114 114 114 114 114 114 197 197 197 197
 197 213 213 213 43 43 43 43 59 59 59 59 59 97 97 97 97 97 97 114
 114 114 114 114 197 197 197 197 197 197 213 213 213 213 43 43 43 59 59 59
 59 59 97 97 97 97 97 104 104 104 195 195 195 195 197 197 197 197 197 213
 213 213 213 43 116 116 59 59 59 59 206 128 128 128 128 104 104 104 104 104
 195 195 195 197 197 197 197 197 213 213 213 213 116 116 116 59 59 59 59 206
 206 128 128 128 128 104 104 104 104 195 195 65 65 152 152 152 197 213 213 213
 213 73 73 73 100 100 100 100 206 206 128 128 128 128 104 104 104 104 104 65
 65 65 65 15 15 81 81 248 248 248 73 73 73 100 100 100 100 206 206 128
 128 128 128 104 104 104 104 104 65 65 65 15 15 15 81 81 81 248 248 73
 73 73 100 100 100 100 206 206 128 128 128 128 104 104 104 104 104 65 65 65
 15 15 15 81 81 81 248 248 248 73 73 100 100 100 100 206 206 128 128 128
 128 104 104 104 104 104 65 65 15 15 15 15 81 81 81 81 248 73 73 126
 126 100 100 100 171 171 171 128 128 66 66 66 66 66 117 117 117 117 15 15
 15 81 81 81 81 23 73 126 126 126 126 126 100 171 171 171 171 66 66 66
 66 66 66 66 117 117 117 117 105 105 105 81 23 23 23 23 126 126 126 126
 126 126 171 171 4 4 4 66 66 66 66 66 66 117 117 117 105 105 105 105
 23 23 23 23 23 126 126 126 126 126 233 99 99 4 4 4 4 66 66 66
 66 66 117 117 105 105 105 105 105 23 23 23 23 23 126 210 210 210 210 233
 99 99 99 4 4 4 66 66 66 66 66 131 117 105 105 105 105 105 23 23
 23 32 32 200 200 200 200 200 233 99 99 99 4 4 4 4 66 66 131 131
 131 216 216 216 105 105 209 94 94 32 32 32 200 200 200 200 200 99 99 99
 99 4 4 4 4 66 66 131 131 131 216 216 216 216 209 209 209 94 32 32
 32 142 200 200 200 18 99 99 99 99 4 4 14 14 14 14 131 131 131 216
 216 216 216 209 209 209 209 32 32 142 142 142 200 18 18 18 18 69 69 14
 14 14 14 14 14 131 131 131 216 216 216 216 209 209 209 209 32 113 113 142
 142 18 18 18 18 18 69 69 14 14 14 14 14 14 6 6 6 6 216 216
 216 209 209 209 209 113 113 113 113 113 18 18 18 18 18 69 69 14 14 14
 14 14 6 6 6 6 6 6 216 216 209 53 53 53 113 113 113 113 113 18
 18 18 18 18 69 69 69 14 14 14 14 212 212 212 6 6 6 228 228 53
 53 53 53 53 113 113 113 113 18 18 18 18 69 69 69 69 218 218 218 218
 222 222 222 222 135 135 228 228 53 53 53 53 38 38 113 113 113 18 18 18
 18 69 69 69 218 218 218 218 218 222 222 222 222 222 72 228 230 221 53 53
 53 38 38 177 177 177 177 78 18 18 78 229 218 218 218 218 218 218 218 222
 222 222 222 72 230 221 221 221 221 38 38 38 177 177 157 78 78 78 78 78
 78 218 218 218 218 218 218 218 222 222 222 72 72 230 221 221 221 221 221 38
 38 177 157 157 78 78 78 78 78 78 78 218 218 218 218 218 218 96 96 96
 72 72 42 98 98 98 98 98 98 98 157 157 157 157 78 78 78 78 78 97
 97 218 218 218 218 218 96 96 96 42 42 42 98 98 98 98 98 98 98 157
 157 157 157 157 78 78 78 97 97 97 97 97 218 96 96 96 96 96 42 42
 42 42 98 98 98 98 98 43 157 157 157 157 157 78 78 97 97 97 97 97
 97 97 96 96 96 96 96 42 42 42 42 42 98 213 213 213 213 43 157 157
 157 157 78 78 97 97 97 97 97 97 97 114 114 114 114 114 197 197 197 197
 197 197 213 213 213 213 43 43 156 156 156 59 59 97 97 97 97 97 97 97
 104 114 114 114 195 197 197 197 197 197 197 213 213 213 213 43 43 156 156 156
 59 59 201 97 97 97 97 97 104 104 104 104 195 195 195 197 197 197 197 197
 213 213 213 213 43 116 156 156 156 59 59 206 206 128 128 97 97 104 104 104
 104 195 195 195 197 197 197 197 197 213 213 213 213 116 73 116 156 100 100 100
 206 206 128 128 128 104 104 104 104 104 195 195 195 65 197 197 197 197 213 213
 248 248 73 73 73 100 100 100 100 100 206 128 128 128 104 104 104 104 104 104
 65 65 65 15 15 15 81 81 248 248 248 73 73 73 100 100 100 100 100 206
 128 128 128 128 104 104 104 104 104 65 65 65 15 15 15 81 81 248 248 248
 248 73 73 100 100 100 100 100 206 128 128 128 128 104 104 104 104 104 65 65
 15 15 15 15 81 81 81 248 248 73 73 73 100 100 100 100 100 206 128 128
 128 194 104 104 104 104 19 65 117 15 15 15 15 81 81 81 81 248 73 73
 126 126 100 100 100 100 171 128 128 194 194 66 66 66 19 19 117 117 117 15
 15 15 81 81 81 81 248 73 126 126 126 126 126 100 171 171 4 4 4 66
 66 66 66 66 19 117 117 117 117 105 105 105 81 23 23 23 23 126 126 126
 126 126 100 99 99 4 4 4 4 66 66 66 66 19 117 117 117 105 105 105
 105 23 23 23 23 23 126 126 126 126 126 126 99 99 4 4 4 4 66 66
 66 66 66 117 117 117 105 105 105 105 23 23 23 32 32 210 210 210 210 210
 210 99 99 99 4 4 4 4 66 66 66 131 131 131 105 105 105 105 105 23
 32 32 32 32 200 200 200 200 200 200 99 99 99 4 4 4 4 66 66 131
 131 131 131 216 105 105 209 209 209 32 32 32 32 200 200 200 200 200 99 99
 99 99 4 4 4 4 66 66 131 131 131 131 216 216 209 209 209 209 32 32
 32 32 200 200 200 200 200 99 99 99 99 4 4 4 14 14 131 131 131 131
 131 216 216 209 209 209 209 209 32 32 142 142 142 24 24 18 18 18 69 69
 4 14 14 14 14 14 131 131 131 131 216 216 209 209 209 209 209 32 32 142
 142 142 142 18 18 18 18 69 69 14 14 14 14 14 14 131 131 131 131 216
 216 209 209 209 209 209 32 113 142 142 142 142 18 18 18 18 69 69 14 14
 14 14 14 14 6 6 6 6 216 216 209 53 53 53 53 53 113 113 113 142
 18 18 18 18 18 69 69 69 14 14 14 222 222 222 222 6 6 228 228 228