# vtk DataFile Version 2.0
Data set from ImportExport Version 6.5.171.b0b162591
ASCII

DATASET RECTILINEAR_GRID
DIMENSIONS 30 30 30
X_COORDINATES 30 float
-1.250000 1.250000 3.750000 6.250000 8.750000 11.250000 13.750000 16.250000 18.750000 21.250000 23.750000 26.250000 28.750000 31.250000 33.750000 36.250000 38.750000 41.250000 43.750000 46.250000 48.750000 
51.250000 53.750000 56.250000 58.750000 61.250000 63.750000 66.250000 68.750000 71.250000 
Y_COORDINATES 30 float
-1.250000 1.250000 3.750000 6.250000 8.750000 11.250000 13.750000 16.250000 18.750000 21.250000 23.750000 26.250000 28.750000 31.250000 33.750000 36.250000 38.750000 41.250000 43.750000 46.250000 48.750000 
51.250000 53.750000 56.250000 58.750000 61.250000 63.750000 66.250000 68.750000 71.250000 
Z_COORDINATES 30 float
-1.250000 1.250000 3.750000 6.250000 8.750000 11.250000 13.750000 16.250000 18.750000 21.250000 23.750000 26.250000 28.750000 31.250000 33.750000 36.250000 38.750000 41.250000 43.750000 46.250000 48.750000 
51.250000 53.750000 56.250000 58.750000 61.250000 63.750000 66.250000 68.750000 71.250000 
CELL_DATA 24389
SCALARS FeatureIds int 1
LOOKUP_TABLE default
 136 136 136 136 131 131 131 36 36 36 134 134 134 134 134 134 199 199 199 199
 178 178 178 178 178 178 178 178 178 136 136 136 136 63 131 131 36 134 134 134
 134 134 134 134 134 199 199 199 199 178 178 178 178 178 178 178 178 178 136 245
 136 63 63 63 63 63 134 134 134 191 191 134 134 207 207 207 207 199 130 130
 130 130 130 130 130 130 130 245 245 245 63 63 63 63 63 63 134 191 191 191
 134 207 207 207 207 207 207 130 130 130 130 130 130 130 130 130 245 245 245 63
 63 63 63 63 63 191 191 191 191 191 207 207 207 207 207 207 130 130 130 130
 130 130 130 130 245 245 245 245 245 63 63 63 63 63 21 191 191 191 207 207
 207 207 207 207 207 26 130 130 130 130 130 130 245 245 245 245 245 245 63 63
 63 63 63 54 54 54 54 54 207 207 207 207 207 26 26 26 130 130 130 130
 130 245 245 245 245 245 245 63 63 63 63 54 54 54 54 54 54 207 207 207
 207 207 26 26 26 26 130 130 84 245 245 245 245 245 245 245 63 63 63 54
 54 54 54 54 54 54 54 207 207 207 26 26 26 26 10 84 84 84 84 245
 245 245 245 245 245 245 44 30 54 54 54 54 54 54 54 54 52 52 52 26
 26 10 10 10 84 84 84 84 84 245 245 245 245 245 27 30 30 30 30 225
 225 225 225 225 54 52 52 52 52 52 10 10 10 84 84 84 84 84 84 27
 27 27 27 27 30 30 30 30 225 225 225 225 225 225 52 52 52 52 52 10
 10 10 165 84 84 84 84 84 27 27 27 27 27 30 30 30 30 225 225 225
 225 225 225 52 52 52 52 52 10 10 165 165 165 84 84 84 84 27 27 27
 27 27 30 30 30 30 30 225 225 225 225 225 59 237 237 237 237 10 165 165
 165 165 84 84 84 84 27 27 27 27 27 30 30 30 30 30 225 225 225 225
 237 237 237 237 237 237 165 165 165 165 165 165 84 84 84 27 27 27 27 27
 30 30 30 30 147 147 147 147 147 237 237 237 237 237 237 237 165 165 165 165
 165 165 84 84 68 68 27 27 27 30 30 30 147 147 147 147 147 147 237 237
 237 237 237 237 165 165 165 165 167 167 167 167 167 50 50 50 50 50 238 30
 147 147 147 147 147 147 147 34 29 29 29 117 117 117 158 158 158 167 167 167
 167 167 68 68 50 50 238 238 238 147 147 147 147 147 147 34 34 29 29 29
 29 117 117 158 158 158 167 167 167 167 167 68 68 238 238 238 238 238 238 31
 31 31 147 34 34 34 29 29 29 29 117 117 158 158 158 177 167 167 218 218
 83 238 238 238 238 238 238 31 31 31 31 31 34 34 34 29 29 29 29 117
 117 158 158 177 177 177 177 218 218 83 235 238 238 238 238 238 31 31 31 31
 31 34 34 34 29 29 29 142 142 142 142 177 177 177 177 177 218 83 83 235
 235 238 238 238 238 31 31 31 31 209 209 34 34 91 142 142 142 142 142 142
 142 177 177 177 83 83 83 235 235 235 235 238 238 238 36 209 209 144 144 144
 91 91 91 91 142 142 142 142 142 142 142 142 177 83 83 83 235 235 235 235
 235 36 36 36 36 144 144 144 144 91 91 91 91 142 142 142 142 142 142 142
 142 83 83 83 235 235 235 235 235 235 36 36 36 36 36 144 144 144 91 91
 91 91 91 142 142 142 142 142 142 142 235 235 235 235 235 235 235 235 235 36
 36 36 36 36 144 144 144 91 91 91 91 91 11 11 11 142 142 178 178 178
 235 235 235 235 235 235 235 131 131 36 36 36 36 36 144 144 91 91 91 91
 91 11 11 11 178 178 178 178 178 178 235 235 235 235 235 235 131 131 36 36
 36 36 36 134 134 134 91 91 91 91 11 11 178 178 178 178 178 178 178 178
 235 136 136 136 136 131 131 131 131 36 134 134 134 134 134 134 134 199 199 199
 199 199 178 178 178 178 178 178 178 136 136 136 136 136 131 131 131 131 134 134
 134 134 134 134 134 134 199 199 199 199 199 178 178 178 178 178 178 178 136 136
 136 136 136 63 63 63 131 134 134 134 191 134 134 134 134 207 199 199 199 130
 130 130 178 130 130 130 130 130 245 245 245 63 63 63 63 21 21 134 191 191
 191 134 207 207 207 207 207 207 130 130 130 130 130 130 130 130 130 245 245 245
 245 63 63 63 21 21 21 191 191 191 134 207 207 207 207 207 207 130 130 130
 130 130 130 130 130 245 245 245 245 245 63 63 63 21 21 21 191 191 191 207
 207 207 207 207 207 207 130 130 130 130 130 130 130 245 245 245 245 245 245 63
 63 63 21 21 21 54 54 54 54 207 207 207 207 207 207 26 26 130 130 130
 130 130 245 245 245 245 245 245 245 63 63 21 21 54 54 54 54 54 207 207
 207 207 207 207 26 26 10 130 130 84 245 245 245 245 245 245 245 44 44 63
 21 54 54 54 54 54 54 54 207 207 207 207 26 26 10 10 10 84 84 84
 245 245 245 245 245 44 44 44 44 54 54 54 54 54 54 54 54 54 52 52
 26 26 10 10 10 84 84 84 84 84 245 245 245 44 44 44 44 30 30 54
 54 54 225 225 54 54 52 52 52 52 10 10 10 10 84 84 84 84 84 84
 245 245 44 27 30 30 30 30 30 225 225 225 225 225 225 52 52 52 52 10
 10 10 10 165 84 84 84 84 84 27 27 27 27 30 30 30 30 30 225 225
 225 225 225 225 237 237 237 237 10 10 10 165 165 165 84 84 84 84 27 27
 27 27 30 30 30 30 30 30 225 225 225 225 237 237 237 237 237 237 10 165
 165 165 165 84 84 84 84 27 27 27 27 30 30 30 30 30 30 225 225 225
 225 237 237 237 237 237 237 165 165 165 165 165 165 84 84 84 68 68 27 27
 30 30 30 30 30 147 147 147 147 147 237 237 237 237 237 237 237 165 165 165
 165 165 165 84 84 68 68 68 68 30 30 30 30 147 147 147 147 147 147 237
 237 237 237 237 237 237 165 165 165 165 165 167 167 167 68 68 68 68 68 30
 30 147 147 147 147 147 147 147 147 237 29 237 237 237 117 158 158 165 167 167
 167 167 167 68 68 68 185 185 185 238 147 147 147 147 147 147 147 34 29 29
 29 29 29 117 177 177 177 177 177 167 167 167 68 68 185 185 185 185 238 147
 147 147 147 147 147 147 34 29 29 29 29 29 177 177 177 177 177 177 177 218
 218 83 68 185 185 185 185 238 31 31 31 147 233 233 233 34 29 29 29 29
 29 177 177 177 177 177 177 177 218 83 83 83 185 185 185 185 238 31 31 31
 233 233 233 233 34 29 29 29 142 142 142 142 177 177 177 177 177 83 83 83
 83 235 185 185 185 238 31 209 209 209 209 209 209 209 91 142 142 142 142 142
 142 142 177 177 177 83 83 83 83 235 235 235 235 185 36 36 209 209 209 209
 209 209 91 91 142 142 142 142 142 142 142 142 177 177 83 83 83 235 235 235
 235 235 36 36 36 36 209 209 209 209 209 91 91 142 142 142 142 142 142 142
 142 177 83 83 83 83 235 235 235 235 235 36 36 36 36 36 36 209 209 91
 182 91 91 142 142 142 142 142 142 142 142 83 83 83 235 235 235 235 235 235
 36 36 36 36 36 36 134 144 182 182 182 91 142 142 142 142 142 142 178 178
 178 235 235 235 235 235 235 235 131 131 36 36 36 36 36 134 134 134 182 91
 182 182 142 142 142 178 178 178 178 178 178 235 235 235 235 235 131 131 131 131
 36 36 36 134 134 134 134 134 182 182 199 199 199 178 178 178 178 178 178 178
 178 235 136 136 136 136 131 131 131 131 36 134 134 134 134 134 134 134 199 199
 199 199 199 178 178 178 178 178 178 136 136 136 136 136 136 131 131 131 131 134
 134 134 134 134 134 134 134 199 199 199 199 199 178 178 178 178 178 178 136 136
 136 136 136 136 136 131 131 131 134 134 134 134 134 134 134 134 199 199 199 199
 199 130 130 130 130 130 130 130 136 136 136 136 136 21 21 21 21 21 134 134
 191 134 134 134 207 207 199 199 199 130 130 130 130 130 130 130 130 136 245 245
 245 245 63 21 21 21 21 21 134 191 134 134 134 207 207 207 207 207 130 130
 130 130 130 130 130 130 245 245 245 245 245 63 21 21 21 21 21 21 191 134
 134 207 207 207 207 207 207 130 130 130 130 130 130 130 245 245 245 245 245 245
 63 21 21 21 21 21 54 54 54 54 207 207 207 207 207 207 130 130 130 130
 130 130 130 245 245 245 245 245 245 44 21 21 21 21 54 54 54 54 54 54
 207 207 207 207 207 26 10 10 130 130 84 245 245 245 245 245 245 44 44 44
 21 21 54 54 54 54 54 54 54 8 207 207 207 26 10 10 10 10 84 84
 84 245 245 245 245 44 44 44 44 44 54 54 54 54 54 54 54 54 54 219
 8 155 10 10 10 10 10 84 84 84 84 245 245 44 44 44 44 44 30 30
 54 54 54 54 54 225 225 225 219 157 10 10 10 10 10 10 84 84 84 84
 84 245 44 44 44 44 30 30 30 30 225 225 225 225 225 225 225 237 52 10
 10 10 10 10 165 84 84 84 84 84 27 44 44 27 30 30 30 30 30 225
 225 225 225 225 225 237 237 237 237 10 10 10 10 165 165 84 84 84 84 27
 27 27 27 30 30 30 30 30 30 225 225 225 225 237 237 237 237 237 237 10
 10 165 165 165 84 84 84 84 68 68 27 27 30 30 30 30 30 30 225 225
 225 225 237 237 237 237 237 237 10 165 165 165 165 165 84 84 84 68 68 68
 68 30 30 30 30 30 147 147 147 147 147 237 237 237 237 237 237 237 165 165
 165 165 165 165 165 165 68 68 68 68 68 30 30 30 147 147 147 147 147 147
 237 237 237 237 237 237 237 165 165 165 165 165 165 165 239 68 68 68 68 68
 185 150 147 147 147 147 147 147 147 237 237 237 237 237 237 237 177 177 177 177
 177 177 177 239 68 68 68 185 185 185 150 150 147 147 147 147 147 147 29 29
 29 29 29 29 177 177 177 177 177 177 177 177 176 68 68 68 185 185 185 150
 150 150 147 147 147 233 233 29 29 29 29 29 29 177 177 177 177 177 177 177
 177 177 83 68 185 185 185 185 185 150 150 233 233 233 233 233 233 29 29 29
 29 29 177 177 177 177 177 177 177 177 83 83 83 185 185 185 185 185 150 150
 233 233 233 233 233 233 172 172 172 142 142 142 177 177 177 177 177 177 83 83
 83 83 83 185 185 185 185 150 209 209 209 209 209 233 233 172 172 142 142 142
 142 142 177 177 177 177 83 83 83 83 83 83 83 185 185 36 36 209 209 209
 209 209 209 209 142 142 142 142 142 142 142 142 142 177 83 83 83 83 83 235
 235 235 235 36 36 36 36 209 209 209 209 209 182 182 142 142 142 142 142 142
 142 142 83 83 83 83 83 235 235 235 235 235 36 36 36 36 36 209 209 209
 182 182 182 182 142 142 142 142 142 142 142 142 83 83 83 83 235 235 235 235
 131 36 36 36 36 36 36 134 134 182 182 182 182 142 142 142 142 142 142 178
 178 178 83 83 235 235 235 235 131 131 131 36 36 36 36 36 134 134 182 182
 182 182 182 199 199 159 178 178 178 178 178 178 83 235 136 136 136 136 131 131
 131 36 36 36 134 134 134 134 134 182 182 199 199 199 199 178 178 178 178 178
 178 136 136 136 136 136 136 131 131 131 131 131 134 134 134 134 134 134 134 134
 199 199 199 199 178 178 178 178 178 178 136 136 136 136 136 136 136 131 131 131
 134 134 134 134 134 134 134 134 134 199 199 199 199 178 178 178 178 178 178 136
 136 136 136 136 136 136 131 131 131 134 134 134 134 134 134 134 134 134 199 199
 199 199 130 130 130 130 130 130 136 136 136 136 136 136 136 21 21 21 21 134
 134 134 134 134 134 134 199 199 199 199 199 130 130 130 130 130 130 136 136 136
 136 121 121 121 21 21 21 21 21 134 134 134 134 134 207 8 8 207 199 130
 130 130 130 130 130 130 130 245 245 245 121 121 121 21 21 21 21 21 21 134
 134 134 8 8 8 8 8 8 113 130 130 130 130 130 130 245 245 245 245 245
 121 121 21 21 21 21 21 21 134 134 134 8 8 8 8 170 170 113 130 130
 130 130 130 245 245 245 245 245 245 44 44 21 21 21 21 21 54 54 54 54
 8 8 8 170 170 155 155 10 76 76 76 84 245 245 245 245 245 44 44 44
 44 21 21 54 54 54 54 54 54 8 8 8 170 155 155 155 10 76 76 76
 84 84 245 245 245 44 44 44 44 44 44 21 54 54 54 54 54 54 219 219
 219 8 155 155 155 10 10 76 76 84 84 84 245 245 44 44 44 44 44 30
 30 227 54 54 54 225 225 219 219 219 157 157 157 10 10 10 10 84 84 84
 84 84 245 44 44 44 44 30 30 30 30 227 225 225 225 225 225 219 219 157
 157 157 10 10 10 10 84 84 84 84 84 245 44 44 44 30 30 30 30 30
 225 225 225 225 225 225 237 237 237 157 157 10 10 10 165 165 84 84 84 84
 68 68 98 98 98 98 30 30 30 30 225 225 225 225 237 237 237 237 237 237
 10 10 10 165 165 165 84 84 84 68 68 68 98 98 98 98 30 30 30 225
 225 225 225 237 237 237 237 237 237 237 10 165 165 165 165 165 165 165 68 68
 68 68 98 98 98 30 30 147 147 147 97 97 237 237 237 237 237 237 237 165
 165 165 165 165 165 165 239 68 68 68 68 98 98 98 98 147 147 147 147 97
 97 97 237 237 237 237 237 237 237 165 165 165 165 177 177 239 68 68 68 68
 98 98 150 150 147 147 147 147 97 97 97 237 237 237 237 237 237 177 177 177
 177 177 177 177 239 68 68 68 68 185 185 150 150 150 147 147 147 97 97 97
 97 190 190 190 237 177 177 177 177 177 177 177 177 176 176 176 176 185 185 185
 150 150 150 150 233 233 233 233 97 172 172 172 172 32 177 177 177 177 177 177
 177 177 176 176 176 176 185 185 185 185 150 150 233 233 233 233 233 233 172 172
 172 172 32 32 32 177 177 177 177 177 177 83 83 83 83 185 185 185 185 150
 150 233 233 233 233 233 233 172 172 172 172 142 32 32 32 177 177 177 177 83
 83 83 83 83 185 185 185 185 150 150 233 209 209 209 233 233 172 172 172 142
 142 142 57 32 32 32 177 83 83 83 83 83 83 185 185 185 242 242 242 209
 209 209 209 209 209 172 142 142 142 142 142 142 32 32 32 83 83 83 83 83
 83 83 83 242 242 242 242 242 209 209 209 209 209 182 182 182 142 142 142 142
 142 32 32 83 83 83 83 83 83 235 235 235 242 242 242 242 36 36 209 209
 209 182 182 182 182 142 142 142 142 142 142 55 55 83 83 83 83 235 235 235
 131 131 131 36 36 36 36 36 134 182 182 182 182 182 182 142 142 159 159 159
 159 55 55 83 83 83 136 136 136 131 131 131 131 36 36 36 134 134 134 182
 182 182 182 182 199 159 159 159 159 159 178 55 136 136 136 136 136 136 136 131
 131 131 131 36 36 134 134 134 134 182 182 182 182 199 199 159 159 159 178 178
 178 136 136 136 136 136 136 136 136 131 131 131 131 134 134 134 134 134 134 134
 199 199 199 199 199 159 159 178 178 178 136 136 136 136 136 136 136 136 131 131
 131 134 134 134 134 134 134 134 134 134 199 199 199 199 113 113 178 178 178 136
 136 136 136 136 136 136 136 131 131 131 134 134 134 134 134 134 134 134 199 199
 199 199 199 113 113 130 130 130 130 136 136 136 136 136 136 121 21 21 21 21
 134 134 134 134 134 134 134 8 199 199 199 113 113 113 113 46 130 130 136 136
 136 121 121 121 121 21 21 21 21 21 134 134 134 134 134 8 8 8 8 113
 113 113 113 46 46 46 46 136 136 245 121 121 121 121 21 21 21 21 21 21
 134 134 134 8 8 8 8 8 8 113 113 46 46 46 46 46 101 245 245 121
 121 121 121 21 21 21 21 21 21 134 134 8 8 8 8 170 170 170 113 46
 46 46 46 46 46 245 245 245 245 44 44 44 21 21 21 21 21 54 54 54
 8 8 8 8 170 170 155 155 155 76 76 76 76 245 245 245 245 44 44 44
 44 44 21 21 21 54 54 54 54 219 219 219 8 170 155 155 155 155 76 76
 76 76 240 245 245 245 44 44 44 44 44 44 227 227 227 227 54 54 219 219
 219 219 8 155 155 155 155 76 76 76 240 240 240 224 44 44 44 44 44 44
 44 227 227 227 227 227 225 219 219 219 219 157 157 157 157 157 76 76 76 240
 240 240 224 224 44 44 44 44 44 30 227 227 227 227 225 225 231 219 219 219
 157 157 157 157 157 10 10 240 240 240 240 224 224 44 44 98 98 98 30 30
 227 227 227 225 225 231 231 237 237 157 157 157 157 10 10 165 240 240 240 240
 240 38 38 98 98 98 98 98 30 227 227 227 225 225 225 237 237 237 237 237
 157 157 10 10 165 165 240 240 240 240 68 68 68 98 98 98 98 98 30 30
 225 225 225 237 237 237 237 237 237 237 237 10 10 165 165 165 165 165 239 68
 68 68 98 98 98 98 98 98 147 147 97 97 97 97 237 237 237 237 237 237
 10 165 165 165 165 165 43 239 239 68 68 68 98 98 98 98 98 147 147 97
 97 97 97 237 237 237 237 237 237 237 177 177 177 177 177 239 239 239 68 68
 68 98 98 98 98 98 147 147 97 97 97 97 97 190 190 190 237 237 177 177
 177 177 177 177 239 239 176 68 68 68 203 203 203 150 150 147 147 97 97 97
 97 97 190 190 190 190 177 177 177 177 177 177 177 177 176 176 176 176 176 203
 203 203 150 150 233 233 233 233 97 97 97 172 172 172 32 32 177 177 177 177
 177 177 176 176 176 176 176 185 185 185 203 150 150 233 233 233 233 233 97 172
 172 172 172 32 32 32 57 177 177 177 177 176 176 83 83 176 185 166 166 166
 166 150 233 233 233 233 233 233 172 172 172 172 32 32 32 32 32 32 177 83
 83 83 83 83 83 185 166 166 166 166 233 233 233 209 209 209 209 172 172 206
 206 57 57 57 32 32 32 32 83 83 83 83 83 83 83 166 166 242 242 242
 209 209 209 209 209 209 206 206 206 206 142 57 57 32 32 32 83 83 83 83
 83 83 83 83 242 242 242 242 242 242 209 209 209 209 182 182 206 206 206 142
 142 32 32 32 32 83 83 83 83 83 83 83 179 242 242 242 242 242 242 209
 209 209 182 182 182 182 119 119 142 159 159 159 55 55 83 83 83 83 235 235
 136 179 131 242 242 242 242 36 36 134 182 182 182 182 182 119 119 159 159 159
 159 159 55 55 83 83 83 136 136 136 179 131 131 131 36 36 36 134 134 134
 182 182 182 182 119 119 159 159 159 159 159 159 55 55 136 136 136 136 136 136
 131 131 131 131 36 134 134 134 134 134 182 182 182 182 199 199 159 159 159 159
 55 55 136 136 136 136 136 136 136 136 131 131 131 131 134 134 134 134 134 134
 134 199 199 199 199 159 159 159 55 55 55 136 136 136 136 136 136 136 136 131
 131 131 134 134 134 134 134 134 134 134 134 199 199 199 113 113 113 113 55 136
 136 136 136 136 136 136 136 136 136 131 131 134 134 134 134 134 134 134 134 199
 199 199 199 113 113 113 113 46 46 136 136 136 136 136 136 136 121 241 241 241
 241 134 134 134 134 134 134 134 8 8 199 113 113 113 113 46 46 46 46 136
 136 136 121 121 121 121 241 241 241 241 241 134 134 134 134 134 8 8 8 8
 113 113 113 113 46 46 46 46 101 136 136 121 121 121 121 241 241 241 241 241
 134 134 134 8 8 8 8 8 8 113 113 113 46 46 46 46 46 101 101 224
 121 121 121 121 121 241 241 241 241 241 134 8 8 8 8 8 170 170 170 113
 46 46 46 46 46 46 101 101 224 224 121 121 121 121 241 241 241 241 241 54
 8 8 8 8 8 170 170 155 155 46 46 46 46 46 46 101 224 224 224 224
 44 44 44 241 241 241 241 227 227 219 219 219 219 8 170 155 155 155 155 76
 76 76 240 240 224 224 224 224 44 44 44 44 44 227 227 227 227 227 231 219
 219 219 219 8 155 155 155 155 76 76 76 240 240 240 224 224 224 44 44 44
 44 227 227 227 227 227 227 231 231 219 219 219 89 157 157 157 157 76 76 76
 240 240 240 224 224 224 224 38 38 98 227 227 227 227 227 227 231 231 231 219
 89 89 157 157 157 157 157 240 240 240 240 240 224 224 38 38 38 38 98 98
 227 227 227 227 227 231 231 231 89 89 89 157 157 157 157 157 240 240 240 240
 240 240 38 38 38 38 98 98 98 98 227 227 227 227 231 231 231 237 237 237
 157 157 157 157 10 240 240 240 240 240 240 38 38 38 98 98 98 98 98 98
 227 227 143 143 143 143 237 237 237 237 237 237 10 10 240 240 240 240 240 43
 68 68 68 98 98 98 98 98 98 98 147 97 97 97 97 237 237 237 237 237
 237 237 165 165 165 240 43 43 43 239 239 68 68 98 98 98 98 98 147 147
 97 97 97 97 97 190 190 190 237 237 237 177 177 177 177 177 239 239 239 239
 68 68 98 98 98 98 98 147 147 97 97 97 97 97 190 190 190 190 237 177
 177 177 177 177 177 239 239 176 176 176 176 203 203 203 203 150 147 147 97 97
 97 97 97 190 190 190 190 32 177 177 177 177 177 177 176 176 176 176 176 176
 203 203 203 203 150 233 233 233 97 97 97 97 190 190 190 32 32 32 57 177
 177 177 177 176 176 176 176 176 176 203 203 203 203 150 233 233 233 233 233 97
 172 172 172 172 32 32 32 57 57 177 177 177 176 176 83 176 176 166 166 166
 166 166 166 233 233 233 233 233 233 172 172 172 172 32 32 32 32 32 32 32
 83 83 83 83 83 83 166 166 166 166 166 166 233 233 209 209 209 206 206 206
 206 206 57 57 32 32 32 32 32 83 83 83 83 83 83 166 166 166 242 242
 242 242 209 209 209 209 209 206 206 206 206 206 57 32 32 32 32 32 83 83
 83 83 83 83 83 166 242 242 242 242 242 209 209 209 209 182 119 119 206 119
 119 57 32 32 32 32 83 83 83 83 83 83 179 179 179 242 242 242 242 242
 209 209 209 182 182 182 119 119 119 119 159 159 159 55 55 55 83 83 83 83
 179 179 179 179 242 242 242 242 242 242 209 182 182 182 182 119 119 119 119 159
 159 159 55 55 55 55 83 83 136 136 179 179 179 131 131 242 242 242 134 134
 134 182 182 182 182 119 119 159 159 159 159 55 55 55 55 136 136 136 136 136
 179 179 131 131 131 131 134 134 134 134 134 182 182 182 119 199 159 159 159 159
 55 55 55 55 136 136 136 136 136 136 179 179 131 131 131 134 134 134 134 134
 134 134 87 199 199 199 159 159 55 55 55 55 136 136 136 136 136 136 136 136
 179 131 131 134 134 134 134 134 134 134 134 134 199 199 113 113 113 113 55 55
 55 136 136 136 136 136 136 136 136 136 241 241 134 134 134 134 134 134 134 134
 8 199 199 113 113 113 113 46 46 46 136 136 136 136 136 136 136 121 241 241
 241 241 134 134 134 105 105 105 105 8 8 113 113 113 113 113 46 46 46 101
 101 136 136 136 121 121 121 241 241 241 241 241 134 134 105 105 105 8 8 8
 8 113 113 113 46 46 46 46 101 101 101 136 121 121 121 121 241 241 241 241
 241 241 105 105 105 8 8 8 8 8 8 113 46 46 46 46 46 101 101 101
 224 224 121 121 121 121 241 241 241 241 241 105 105 105 8 8 8 8 8 8
 46 46 46 46 46 46 101 101 101 224 224 224 121 121 121 241 241 241 241 241
 8 8 8 8 8 8 8 8 155 155 46 46 46 46 46 101 101 224 224 224
 224 224 224 224 241 241 241 227 227 231 219 219 219 8 8 8 155 155 155 155
 76 76 76 240 240 224 224 224 224 224 224 224 224 227 227 227 227 227 231 231
 231 219 219 219 8 155 155 155 155 76 76 76 240 240 240 224 224 224 224 224
 224 224 227 227 227 227 227 231 231 231 231 219 89 89 89 157 157 157 76 76
 240 240 240 240 224 224 224 224 38 38 38 227 227 227 227 227 231 231 231 231
 89 89 89 89 157 157 157 240 240 240 240 240 240 224 224 38 38 38 38 38
 38 227 227 227 227 231 231 231 231 89 89 89 89 157 157 157 240 240 240 240
 240 240 240 224 38 38 38 38 98 98 98 227 227 227 231 231 231 231 89 89
 89 89 157 157 157 157 240 240 240 240 240 240 38 38 38 38 98 98 98 98
 98 227 227 143 143 143 143 143 237 237 237 237 157 157 157 240 240 240 240 43
 43 239 38 38 98 98 98 98 98 98 98 143 143 143 143 143 143 237 237 237
 237 237 237 5 240 240 240 43 43 43 239 239 68 98 98 98 98 98 98 98
 198 97 97 97 97 97 190 190 190 190 237 237 5 177 5 43 43 43 239 239
 239 239 68 98 98 98 98 98 198 198 97 97 97 97 97 190 190 190 190 190
 177 177 177 177 177 43 239 239 176 176 176 176 203 203 203 203 203 198 198 97
 97 97 97 97 190 190 190 190 32 177 177 177 177 177 177 176 176 176 176 176
 176 203 203 203 203 203 204 204 204 97 97 97 97 190 190 190 32 32 57 57
 57 177 62 62 176 176 176 176 176 203 203 203 203 203 203 204 204 204 204 204
 97 172 172 172 32 32 32 57 57 57 62 62 62 176 176 83 176 176 166 166
 166 166 166 166 204 204 204 204 204 204 172 172 172 32 32 32 32 32 32 32
 62 62 83 83 83 83 83 166 166 166 166 166 204 204 204 204 204 204 204 206
 206 206 206 57 57 32 32 32 32 62 62 83 83 83 83 83 72 72 72 72
 242 242 242 204 204 204 204 206 206 206 206 206 119 57 32 32 32 32 62 83
 83 83 83 83 83 72 72 242 242 242 242 242 209 209 209 209 182 119 119 119
 119 119 57 32 32 32 55 55 83 83 83 83 179 179 179 179 242 242 242 242
 242 200 200 200 182 182 119 119 119 119 119 159 159 55 55 55 55 55 83 83
 179 179 179 179 179 179 242 242 242 242 200 200 200 182 182 119 119 119 119 119
 159 159 55 55 55 55 55 55 83 136 179 179 179 179 179 242 242 242 242 200
 200 200 200 182 182 119 119 119 159 159 159 55 55 55 55 55 136 136 136 136
 179 179 179 179 131 24 24 24 200 200 200 200 182 182 119 119 119 159 159 159
 55 55 55 55 55 136 136 80 80 80 179 179 179 24 24 24 24 200 200 200
 134 134 87 87 87 87 87 17 17 55 55 55 55 55 80 80 80 71 80 136
 136 179 24 24 24 134 134 134 105 105 105 105 87 87 87 17 17 17 17 55
 55 55 55 136 80 80 80 80 136 136 136 241 241 134 134 134 105 105 105 105
 105 105 87 113 113 113 113 46 46 46 46 101 80 80 80 80 136 136 136 241
 241 241 241 134 134 105 105 105 105 105 105 8 113 113 113 113 46 46 46 46
 101 101 101 136 136 121 121 121 241 241 241 241 241 105 105 105 105 105 105 8
 8 8 113 113 46 46 46 46 46 101 101 101 101 121 121 121 121 241 241 241
 241 241 105 105 105 105 105 8 8 8 8 8 46 46 46 46 46 46 101 101
 101 224 224 121 121 121 121 241 241 241 241 241 105 105 105 105 8 8 8 8
 8 46 46 46 46 46 46 101 101 101 224 224 224 224 121 121 241 241 241 241
 13 105 105 105 8 8 8 8 8 8 193 46 46 46 46 46 101 101 224 224
 224 224 224 224 224 241 241 241 227 227 231 231 231 8 8 8 8 8 155 193
 193 46 46 46 240 240 224 224 224 224 224 224 224 224 224 227 227 227 227 231
 231 231 231 8 89 89 89 155 155 193 76 240 240 240 240 240 224 224 224 224
 224 224 224 227 227 227 227 227 231 231 231 231 89 89 89 89 89 157 157 240
 240 240 240 240 240 224 224 224 224 38 38 38 38 227 227 227 227 231 231 231
 231 89 89 89 89 89 157 157 240 240 240 240 240 240 224 224 38 38 38 38
 38 38 227 227 227 227 231 231 231 231 89 89 89 89 89 157 157 240 240 240
 240 240 240 240 224 38 38 38 38 38 98 98 227 227 227 231 231 231 231 89
 89 89 89 89 157 157 240 240 240 240 240 240 240 43 38 38 38 38 98 98
 98 98 227 143 143 143 143 143 143 89 89 89 89 157 157 240 240 240 240 43
 43 43 43 100 38 38 98 98 98 98 98 198 198 143 143 143 143 143 237 237
 237 237 237 5 5 5 5 43 43 43 43 239 239 68 98 98 98 98 98 98
 198 198 198 143 143 143 143 190 190 190 190 190 5 5 5 5 43 43 43 43
 239 239 239 98 98 98 98 98 198 198 198 198 198 97 97 97 190 190 190 190
 190 5 5 5 5 5 43 43 43 176 176 176 176 203 203 203 203 198 198 198
 198 198 97 97 97 190 190 190 190 32 5 5 5 5 5 43 43 176 176 176
 176 176 203 203 203 203 203 204 204 204 204 97 97 97 190 190 190 32 32 57
 57 57 62 62 62 62 176 176 176 176 203 203 203 203 203 204 204 204 204 204
 204 204 172 108 108 108 108 32 57 57 62 62 62 62 62 176 83 176 82 72
 72 166 166 166 204 204 204 204 204 204 204 172 172 108 108 108 32 32 32 62
 62 62 62 62 83 83 83 72 72 72 72 72 72 72 204 204 204 204 204 204
 206 206 206 108 108 32 32 32 32 62 62 62 62 83 83 83 72 72 72 72
 72 72 242 204 204 204 204 204 204 119 119 119 119 119 32 32 32 32 62 62
 62 62 83 83 83 72 72 72 72 72 242 242 242 204 204 204 204 119 119 119
 119 119 119 32 32 32 55 62 62 62 62 83 179 179 179 179 179 72 242 242
 242 242 200 200 200 200 182 119 119 119 119 119 119 55 55 55 55 55 229 229
 229 179 179 179 179 179 179 242 242 242 200 200 200 200 200 182 119 119 119 119
 119 159 55 55 55 55 55 55 229 229 136 179 179 179 179 179 24 24 24 200
 200 200 200 200 182 119 119 119 119 119 159 55 55 55 55 55 55 229 229 80
 80 179 179 179 179 24 24 24 24 200 200 200 200 200 119 119 119 119 87 159
 55 55 55 55 55 55 229 136 80 80 80 179 179 179 24 24 24 24 200 200
 174 174 174 87 87 87 87 87 17 17 17 55 55 55 55 80 80 80 80 80
 80 136 179 24 24 24 24 200 105 105 105 105 105 87 87 87 17 17 17 17
 17 55 55 80 80 80 80 80 80 80 136 136 77 77 77 77 105 105 105 105
 105 105 105 87 87 17 17 17 110 110 46 46 101 80 80 80 80 80 80 136
 77 77 241 77 77 105 105 105 105 105 105 81 81 110 110 110 110 110 46 46
 46 101 101 101 80 136 121 121 121 241 241 241 232 232 105 105 105 105 105 81
 81 81 81 110 110 110 46 46 46 46 101 101 101 101 224 121 121 121 241 241
 232 232 232 232 105 105 105 105 81 81 81 8 110 110 46 46 46 46 46 101
 101 101 224 224 224 224 121 121 241 232 232 232 232 105 105 105 81 81 81 8
 8 8 46 46 46 46 46 46 101 101 101 224 224 224 224 224 224 241 232 232
 232 13 105 105 105 105 8 8 8 8 193 193 193 46 46 46 46 101 101 224
 224 224 224 224 224 224 224 232 232 232 13 102 102 231 8 8 8 8 193 193
 193 193 46 46 46 240 240 224 224 224 224 224 224 224 224 9 9 9 9 102
 102 102 231 231 89 89 89 89 193 193 193 193 240 240 240 240 240 224 224 224
 224 224 224 224 9 9 9 9 9 102 231 231 231 89 89 89 89 193 193 193
 240 240 240 240 240 240 224 224 224 224 38 38 38 9 9 9 9 9 231 231
 231 231 89 89 89 89 89 89 157 240 240 240 240 240 240 224 224 38 38 38
 38 38 9 9 9 9 9 231 231 231 231 89 89 89 89 89 89 157 240 240
 240 240 240 240 240 43 38 38 38 38 38 38 9 9 9 231 231 231 231 231
 89 89 89 89 89 157 157 240 240 240 240 240 43 43 43 100 38 38 38 38
 98 98 198 198 198 143 143 143 143 143 89 89 89 89 157 5 5 240 240 43
 43 43 43 100 100 100 38 38 98 98 98 198 198 198 198 143 143 143 143 143
 89 89 237 5 5 5 5 5 43 43 43 43 43 100 100 98 98 98 98 98
 198 198 198 198 198 143 143 143 190 190 190 190 5 5 5 5 5 43 43 43
 43 43 239 239 98 98 98 98 198 198 198 198 198 198 198 143 143 190 190 190
 190 5 5 5 5 5 5 43 43 43 176 176 176 215 215 215 215 215 198 198
 198 198 198 198 198 198 190 190 190 108 5 5 5 5 5 5 43 43 176 82
 82 82 215 215 215 215 215 198 198 198 198 198 198 198 198 190 108 108 108 108
 5 5 5 62 62 62 62 176 82 82 82 82 215 215 215 215 204 204 204 204
 204 204 204 204 108 108 108 108 108 108 57 62 62 62 62 62 62 82 82 82
 72 72 72 72 72 72 204 204 204 204 204 204 204 108 108 108 108 108 108 32
 62 62 62 62 62 62 82 82 82 72 72 72 72 72 72 204 204 223 223 223
 223 223 108 108 108 108 108 108 32 62 62 62 62 62 62 82 82 72 72 72
 72 72 72 72 204 204 223 223 223 223 119 119 119 119 108 108 32 32 62 62
 62 62 62 62 82 72 72 72 72 72 72 72 72 72 204 223 223 223 119 119
 119 119 119 119 108 32 55 62 62 62 229 229 229 229 179 179 179 72 72 72
 72 72 200 200 200 200 200 200 119 119 119 119 119 119 55 55 55 55 55 229
 229 229 229 179 179 179 179 179 24 24 24 200 200 200 200 200 200 119 119 119
 119 119 159 55 55 55 55 55 229 229 229 229 179 179 179 179 179 24 24 24
 24 200 200 200 200 200 119 119 87 87 87 159 55 55 55 55 55 229 229 229
 80 80 179 179 179 179 24 24 24 24 200 200 200 174 174 174 87 87 87 87
 87 55 55 55 55 55 229 229 229 107 107 107 179 179 179 24 24 24 24 174
 174 174 174 174 161 87 87 87 87 17 17 17 55 55 55 229 229 80 107 107
 107 107 179 179 77 77 24 24 174 174 174 174 161 161 161 87 87 17 17 17
 17 17 17 17 80 80 80 107 107 80 80 136 77 77 77 77 77 105 105 105
 105 105 161 161 161 87 110 110 17 110 110 46 46 101 80 80 107 107 80 80
 77 77 77 77 77 77 105 105 105 105 105 81 81 81 110 110 110 110 110 110
 46 46 101 101 101 6 6 6 121 121 77 77 77 232 232 232 105 105 105 81
 81 81 81 81 110 110 110 110 46 46 46 101 101 101 6 6 6 6 121 232
 232 232 232 232 232 105 105 105 81 81 81 81 8 110 110 110 46 46 46 46
 101 101 101 224 224 224 224 121 232 232 232 232 232 232 13 105 105 81 81 81
 81 8 193 193 46 46 46 46 46 101 101 101 224 224 224 224 224 232 232 232
 232 232 13 13 13 105 81 81 81 8 8 193 193 193 46 46 46 46 35 101
 224 224 224 224 224 224 224 232 232 232 232 13 13 102 102 102 201 201 8 193
 193 193 193 193 46 46 240 240 224 224 224 224 224 224 224 9 9 9 9 9
 102 102 102 102 102 201 201 89 193 193 193 193 193 240 240 240 240 240 224 224
 224 224 224 224 9 9 9 9 9 9 102 102 102 102 201 89 89 89 193 193