# vtk DataFile Version 2.0
Data set from ImportExport Version 6.5.171.b0b162591
ASCII

DATASET RECTILINEAR_GRID
DIMENSIONS 30 30 30
X_COORDINATES 30 float
-1.250000 1.250000 3.750000 6.250000 8.750000 11.250000 13.750000 16.250000 18.750000 21.250000 23.750000 26.250000 28.750000 31.250000 33.750000 36.250000 38.750000 41.250000 43.750000 46.250000 48.750000 
51.250000 53.750000 56.250000 58.750000 61.250000 63.750000 66.250000 68.750000 71.250000 
Y_COORDINATES 30 float
-1.250000 1.250000 3.750000 6.250000 8.750000 11.250000 13.750000 16.250000 18.750000 21.250000 23.750000 26.250000 28.750000 31.250000 33.750000 36.250000 38.750000 41.250000 43.750000 46.250000 48.750000 
51.250000 53.750000 56.250000 58.750000 61.250000 63.750000 66.250000 68.750000 71.250000 
Z_COORDINATES 30 float
-1.250000 1.250000 3.750000 6.250000 8.750000 11.250000 13.750000 16.250000 18.750000 21.250000 23.750000 26.250000 28.750000 31.250000 33.750000 36.250000 38.750000 41.250000 43.750000 46.250000 48.750000 
51.250000 53.750000 56.250000 58.750000 61.250000 63.750000 66.250000 68.750000 71.250000 
CELL_DATA 24389
SCALARS FeatureIds int 1
LOOKUP_TABLE default
 141 139 234 234 234 234 205 205 205 110 110 197 197 197 197 197 196 196 210 210
 210 106 106 106 106 106 106 106 141 139 139 139 234 234 234 110 110 110 110 110
 197 197 197 197 197 196 196 210 210 210 106 106 106 106 106 106 88 141 139 139
 139 139 234 234 234 110 110 110 110 197 197 197 197 197 196 196 210 210 210 106
 106 106 106 88 88 88 88 139 139 139 139 2 2 2 205 205 205 205 197 197
 197 197 197 196 196 49 49 49 106 106 106 88 88 88 88 88 139 139 139 139
 139 2 2 2 205 167 253 253 253 253 253 253 253 49 49 49 49 123 123 123
 123 88 88 88 88 221 221 139 139 139 2 2 167 167 167 167 253 253 253 253
 253 253 49 49 49 123 123 123 123 123 123 88 88 221 221 221 221 221 139 2
 2 167 167 167 167 167 253 253 253 253 253 17 17 17 123 123 123 123 123 123
 88 221 221 221 221 221 221 221 235 235 167 167 167 167 167 14 14 14 14 14
 17 17 17 17 123 123 123 123 123 123 89 221 221 221 221 221 221 235 235 235
 167 167 167 167 14 14 14 14 17 17 17 17 17 17 123 123 123 123 123 89
 221 195 195 195 221 235 235 235 235 235 167 167 167 14 14 14 14 17 17 17
 17 17 17 123 123 123 123 123 89 221 195 195 195 195 235 235 235 235 235 235
 167 167 14 14 14 14 17 17 17 17 17 17 17 123 123 77 195 195 195 195
 195 195 195 168 235 235 235 235 235 167 167 14 14 14 208 17 17 17 17 17
 17 17 185 185 77 195 195 195 195 195 195 79 168 168 168 235 235 235 80 90
 90 208 208 208 208 17 17 17 17 185 185 185 185 77 77 195 195 247 247 247
 79 168 168 168 168 80 80 80 90 90 208 208 208 208 208 10 10 10 185 185
 185 185 185 185 247 247 247 247 247 79 79 168 168 80 80 80 80 90 90 90
 208 208 208 208 10 10 10 185 185 185 185 185 185 247 247 247 247 79 79 79
 79 79 80 80 80 80 90 90 90 90 208 208 122 10 10 10 185 185 185 185
 185 185 247 247 247 247 79 79 79 79 79 80 80 80 80 90 90 90 90 122
 122 122 10 10 10 185 185 185 185 185 185 247 247 236 236 236 236 236 236 236
 236 237 237 237 90 90 90 90 122 122 122 122 10 252 252 252 185 185 185 185
 247 247 236 236 236 236 236 236 236 51 51 237 237 90 90 90 122 122 23 122
 122 252 252 252 252 252 185 185 82 82 82 47 47 236 216 236 236 51 51 51
 51 237 237 122 122 122 122 122 122 148 252 252 252 252 252 252 82 82 82 82
 47 47 216 216 216 51 51 51 51 51 51 51 122 122 122 122 148 148 148 252
 252 252 252 252 252 82 82 82 82 82 47 216 216 216 51 51 51 51 51 51
 51 20 20 20 20 20 148 148 148 252 252 252 252 252 82 82 82 82 82 82
 61 61 61 61 51 51 51 51 51 28 20 20 20 20 20 20 148 148 252 252
 252 252 82 82 82 82 82 82 61 61 61 61 61 61 51 51 28 28 28 20
 20 20 20 20 20 20 148 62 62 62 6 6 6 6 169 169 206 56 56 61
 61 61 61 18 28 28 28 28 20 20 20 20 20 20 20 42 42 42 42 6
 6 6 6 6 169 56 56 56 56 61 61 18 18 28 28 28 28 28 20 73
 73 73 73 73 42 42 44 42 6 6 6 6 6 169 56 56 56 56 234 61
 18 18 28 28 28 60 246 246 73 73 73 73 73 44 44 44 44 6 6 6
 6 6 6 141 141 234 234 234 234 234 18 28 28 60 60 246 246 246 246 73
 73 210 44 44 44 106 106 106 106 106 106 106 141 141 234 234 234 234 234 205
 205 205 60 60 197 246 246 246 196 196 210 210 210 106 106 106 106 106 106 106
 106 141 141 141 234 234 234 234 205 205 110 110 197 246 246 246 246 196 196 210
 210 210 106 106 106 106 106 106 106 141 141 141 141 234 234 105 110 110 110 110
 110 197 197 197 197 196 196 196 210 210 210 106 106 106 106 106 88 88 141 141
 141 141 234 234 234 234 205 205 110 110 197 197 197 197 196 196 196 196 210 210
 106 106 106 106 88 88 88 141 139 139 139 139 2 2 2 205 205 205 205 16
 16 16 16 196 196 196 210 210 210 106 106 106 88 15 88 88 88 221 139 139
 115 2 2 2 2 167 167 167 16 16 16 16 16 196 49 49 49 123 123 123
 123 123 88 88 88 88 221 221 115 115 115 2 2 167 167 167 167 16 16 16
 16 16 16 49 49 123 123 123 123 123 123 123 88 88 88 221 221 221 115 115
 115 2 167 167 167 167 167 16 16 16 16 16 17 17 123 123 123 123 123 123
 123 88 88 221 221 221 221 221 115 235 235 167 167 167 167 167 16 16 16 14
 14 17 17 17 123 123 123 123 123 123 123 89 221 221 221 221 221 221 235 235
 167 167 167 167 167 14 14 14 14 17 17 17 17 17 123 123 83 83 83 83
 221 221 221 221 221 221 221 235 235 235 167 167 167 167 167 14 14 14 17 17
 17 17 17 17 123 83 83 83 52 221 221 137 137 137 137 168 235 235 235 167
 167 167 167 167 14 14 32 17 17 17 17 17 17 17 83 83 77 52 137 137
 137 137 137 137 168 168 168 235 235 167 167 167 167 14 208 208 208 17 17 17
 17 17 185 185 77 77 77 195 195 247 247 247 79 168 168 168 168 235 167 175
 90 90 208 208 208 208 10 10 10 10 185 185 185 77 77 77 247 247 247 247
 247 79 168 168 168 168 80 80 80 90 90 208 208 208 208 10 10 10 10 185
 185 185 185 77 77 247 247 247 247 247 79 79 168 168 168 80 80 80 90 90
 90 208 208 208 10 10 10 10 185 185 185 185 185 185 247 247 247 247 79 79
 79 79 79 237 237 237 237 90 90 90 208 208 208 122 10 10 10 185 185 185
 185 185 185 247 247 247 247 79 79 79 79 79 237 237 237 237 90 90 90 90
 122 122 122 10 10 10 185 185 185 185 185 185 247 247 236 236 236 236 236 236
 236 237 237 237 237 90 90 90 122 122 122 122 122 10 252 252 252 185 185 185
 185 247 247 236 236 236 236 236 236 236 237 237 237 237 237 90 90 122 122 23
 23 122 252 252 252 252 252 185 185 82 82 82 236 236 236 236 236 236 51 51
 51 237 237 237 122 122 122 122 23 122 122 252 252 252 252 252 252 82 82 82
 82 82 236 236 236 236 51 51 51 51 51 237 237 122 122 122 122 122 122 122
 252 252 252 252 252 252 82 82 82 82 82 82 236 61 61 51 51 51 51 51
 51 95 95 95 20 20 20 20 20 252 252 252 252 252 82 82 82 82 82 82
 82 61 61 61 61 51 51 51 51 51 28 20 20 20 20 20 20 20 62 62
 62 62 62 82 82 82 82 82 82 82 61 61 61 61 61 51 51 28 28 28
 20 20 20 20 20 20 20 62 62 62 62 62 6 206 169 169 169 206 206 61
 61 61 61 61 61 28 28 28 28 20 20 20 20 20 20 20 42 42 42 42
 42 6 206 206 169 169 169 56 56 61 61 61 61 28 28 28 28 28 20 73
 73 73 73 73 73 42 42 42 42 42 6 206 206 206 169 169 141 56 61 61
 61 61 28 28 28 28 28 246 246 246 73 73 73 73 44 44 44 44 44 6
 6 6 206 169 141 141 141 234 234 234 234 234 28 28 28 28 246 246 246 246
 246 73 44 44 44 44 44 106 106 106 106 106 106 141 141 141 234 234 234 234
 205 205 205 28 60 246 246 246 246 196 196 210 210 44 44 106 106 106 106 106
 106 106 141 141 141 234 234 234 234 110 110 110 110 246 246 246 246 246 196 196
 210 210 210 106 106 106 106 106 106 106 141 141 141 141 234 234 234 234 110 110
 110 110 110 246 246 246 196 196 196 196 210 210 106 106 106 106 106 106 88 141
 141 141 141 234 234 234 234 205 205 205 110 110 197 197 197 196 196 196 196 64
 64 106 106 106 106 88 88 88 141 141 141 141 115 2 2 2 205 205 205 205
 16 16 16 16 16 196 196 64 64 64 106 106 106 88 88 88 88 141 141 115
 115 115 115 2 2 2 205 167 16 16 16 16 16 16 16 196 64 64 123 123
 123 123 123 88 88 88 141 221 115 115 115 115 115 2 167 167 167 167 16 16
 16 16 16 16 196 64 123 123 123 123 123 123 123 88 88 221 221 221 115 115
 115 115 2 167 167 167 167 16 16 16 16 16 16 16 17 123 123 123 123 123
 123 123 88 221 221 221 221 221 115 115 115 167 167 167 167 167 167 16 16 16
 16 16 32 17 17 83 83 83 83 83 83 83 221 221 221 221 221 221 115 115
 167 167 167 167 167 167 16 16 16 32 32 32 32 17 83 83 83 83 83 83
 83 221 221 221 137 137 137 137 235 235 167 167 167 167 167 167 14 32 32 32
 32 17 17 17 83 83 83 83 83 52 52 221 137 137 137 137 137 74 74 167
 167 167 167 167 167 14 32 32 32 32 17 17 17 83 83 83 83 77 52 137
 137 137 137 137 137 74 74 74 74 175 175 175 175 175 208 208 32 32 32 17
 17 99 99 99 99 77 77 77 137 137 137 137 137 74 74 74 74 74 74 175
 175 175 90 208 208 208 208 10 10 10 10 99 99 99 77 77 77 77 137 247
 247 247 79 74 74 74 74 74 175 175 237 90 208 208 208 208 10 10 10 10
 185 185 185 77 77 77 77 247 247 247 247 79 79 74 74 74 74 237 237 237
 90 208 208 208 208 10 10 10 10 185 185 185 185 77 77 77 247 247 247 79
 79 79 79 74 237 237 237 237 237 90 90 208 208 208 122 10 10 10 185 185
 185 185 185 77 247 247 247 247 79 79 79 79 79 237 237 237 237 237 90 90
 122 122 122 122 10 10 10 185 185 185 185 185 185 247 247 236 236 236 236 236
 236 236 237 237 237 237 237 90 90 122 122 122 122 122 10 252 252 185 185 185
 185 82 82 82 236 236 236 236 236 236 236 237 237 237 237 237 90 122 122 122
 122 122 122 252 252 252 252 252 185 82 82 82 82 82 236 236 236 236 236 51
 51 237 237 237 237 122 122 122 122 122 122 122 252 252 252 252 252 252 82 82
 82 82 82 82 236 236 236 51 51 51 51 51 237 237 95 95 95 122 122 122
 122 252 252 252 252 252 82 82 82 82 82 82 82 61 61 61 61 51 51 51
 51 51 95 95 95 95 20 20 20 20 180 180 180 180 180 82 82 82 82 82
 82 82 61 61 61 61 61 51 51 51 51 95 95 95 20 20 20 20 20 62
 62 62 62 62 82 82 82 82 82 206 206 61 61 61 61 61 61 28 28 28
 28 20 20 20 20 20 20 20 62 62 62 62 62 206 206 169 169 206 206 206
 61 61 61 61 61 61 28 28 28 28 20 20 20 20 20 20 20 42 42 42
 42 42 42 206 206 206 169 169 169 61 61 61 61 61 61 28 28 28 28 246
 246 73 73 73 73 42 42 42 42 42 42 42 206 206 206 169 169 169 61 61
 61 61 61 61 28 28 28 28 246 246 246 246 73 73 44 44 44 44 44 44
 44 206 206 206 169 141 141 141 234 234 234 234 205 28 28 28 246 246 246 246
 246 246 246 44 44 44 44 44 44 106 106 106 206 169 141 141 141 234 234 234
 234 205 110 110 110 246 246 246 246 246 246 196 210 44 44 44 44 106 106 106
 106 106 106 141 141 141 141 234 234 234 110 110 110 212 212 212 246 246 246 196
 196 64 64 64 44 44 106 106 106 106 141 141 141 141 141 141 234 234 234 110
 110 110 110 212 212 246 246 196 196 196 64 64 64 106 106 106 106 106 106 106
 141 141 141 141 141 234 234 234 205 205 205 205 16 16 16 16 196 196 196 64
 64 64 106 106 106 106 106 88 88 141 141 141 141 115 115 2 234 205 205 205
 205 16 16 16 16 16 196 196 64 64 64 106 106 106 106 88 88 88 141 141
 115 115 115 115 115 2 2 205 167 16 16 16 16 16 16 16 196 64 64 64
 123 123 123 123 88 88 88 141 221 115 115 115 115 115 2 40 167 167 167 16
 16 16 16 16 16 16 64 123 123 123 123 123 123 123 88 88 221 221 115 115
 115 115 115 115 40 40 167 40 16 16 16 16 16 16 32 75 75 83 83 83
 83 83 83 83 221 221 221 221 115 115 115 115 40 40 40 40 40 40 16 16
 16 16 32 32 75 75 83 83 83 83 83 83 83 221 221 221 221 221 221 115
 115 40 40 40 40 40 40 16 16 32 32 32 32 32 75 83 83 83 83 83
 83 52 52 221 137 137 137 137 137 74 40 40 167 167 167 40 40 32 32 32
 32 32 32 75 83 83 83 83 83 52 52 52 52 137 137 137 137 137 74 74
 175 175 175 175 175 175 32 32 32 32 32 32 222 99 99 83 83 52 52 52
 52 52 137 137 137 137 74 74 74 74 175 175 175 175 175 32 32 32 32 32
 32 99 99 99 99 99 99 52 52 52 137 137 137 137 74 74 74 74 74 175
 175 175 175 175 85 85 85 85 85 10 10 99 99 99 99 77 77 77 52 137
 137 137 247 74 74 74 74 74 74 175 175 175 85 85 85 85 85 85 10 10
 10 99 99 99 77 77 77 77 247 247 247 247 79 74 74 74 74 237 237 237
 237 90 85 85 85 85 10 10 10 10 185 185 185 77 77 77 77 247 247 247
 79 79 79 74 74 237 237 237 237 237 90 122 208 208 122 122 10 10 10 185
 185 185 185 77 77 77 247 247 247 79 79 79 79 237 237 237 237 237 237 237
 122 122 122 122 122 10 10 10 185 185 185 185 185 45 45 45 236 236 236 236
 236 236 237 237 237 237 237 237 237 122 122 122 122 122 122 10 252 252 185 185
 185 185 82 82 82 236 236 236 236 236 236 237 237 237 237 237 237 237 122 122
 122 122 122 122 252 252 252 252 252 185 82 82 82 82 82 236 236 236 236 236
 51 237 237 237 237 237 237 95 122 122 122 122 122 252 252 252 252 252 82 82
 82 82 82 82 82 236 61 61 61 61 51 51 237 237 95 95 95 95 122 122
 122 180 180 180 180 180 180 82 82 82 82 82 82 82 61 61 61 61 61 51
 51 51 95 95 95 95 95 20 20 20 180 180 180 180 180 180 82 82 82 82
 82 82 82 61 61 61 61 61 61 61 51 28 95 95 95 95 20 20 20 20
 62 62 62 62 62 82 82 82 82 82 206 206 61 61 61 61 61 61 61 28
 28 28 20 20 20 20 20 20 20 62 62 62 62 62 206 206 206 169 206 206
 206 61 61 61 61 61 61 28 28 28 28 20 20 20 20 20 20 42 42 42
 42 42 42 206 206 206 206 169 169 169 61 61 61 61 61 61 28 28 28 251
 212 246 246 73 73 73 42 42 42 42 42 42 42 206 206 206 169 169 169 61
 61 61 61 61 61 28 28 212 212 212 246 246 246 246 246 44 44 44 44 44
 44 44 206 206 206 169 141 141 141 141 234 234 61 110 28 212 212 212 212 246
 246 246 246 246 44 44 44 44 44 44 44 44 206 206 169 141 141 141 141 234
 234 234 110 110 212 212 212 212 246 246 246 246 196 64 44 44 44 44 44 106
 106 106 106 169 141 141 141 141 11 54 54 54 54 54 212 212 212 212 246 246
 196 64 64 64 64 44 44 106 106 106 106 141 141 141 141 141 141 11 11 54
 54 54 54 212 212 212 212 246 196 196 64 64 64 64 106 106 106 106 106 106
 141 141 141 141 141 141 11 11 54 54 54 54 54 16 16 16 16 196 196 64
 64 64 64 106 106 106 106 106 88 141 141 141 141 141 115 115 11 11 54 54
 54 54 16 16 16 16 16 196 64 64 64 64 106 106 106 106 106 88 88 141
 141 115 115 115 115 115 11 54 54 40 16 16 16 16 16 16 16 64 64 64
 64 123 123 123 123 88 88 88 141 115 115 115 115 115 115 115 40 40 40 40
 16 16 16 16 16 16 75 75 75 75 83 83 83 83 83 88 158 158 221 115
 115 115 115 115 115 40 40 40 40 40 16 16 16 16 16 32 75 75 75 83
 83 83 83 83 83 158 158 221 115 115 115 115 115 40 40 40 40 40 40 16
 16 16 32 32 32 75 75 75 83 83 83 83 83 83 52 158 221 221 221 115
 115 115 40 40 40 40 40 40 16 16 32 32 32 32 75 75 75 83 83 83
 83 83 52 52 52 127 127 127 127 127 74 40 40 40 40 40 40 40 32 32
 32 32 32 32 75 222 83 83 83 83 52 52 52 52 127 127 127 127 127 74
 175 175 175 175 175 175 175 32 32 32 32 32 32 222 222 99 83 83 52 52
 52 52 52 127 127 127 127 74 74 74 175 175 175 175 175 175 32 32 32 32
 32 32 222 99 99 99 99 99 52 52 52 52 127 127 127 127 74 74 74 74
 175 175 175 175 175 85 85 85 85 32 32 222 99 99 99 99 99 77 52 52
 127 127 127 127 74 74 74 74 74 175 175 175 175 85 85 85 85 85 85 10
 10 99 99 99 99 99 77 77 77 127 247 127 247 74 74 74 74 74 175 237
 175 237 85 85 85 85 85 102 10 10 10 99 99 99 77 77 77 77 127 45
 247 79 79 74 74 74 237 237 237 237 237 237 102 102 102 102 102 10 10 10
 245 185 185 77 77 77 45 45 45 45 79 79 79 79 237 237 237 237 237 237
 237 102 102 102 102 102 10 10 10 245 185 185 185 77 45 45 45 45 45 236
 236 236 236 237 237 237 237 237 237 237 122 122 122 122 122 122 70 245 245 245
 245 185 45 45 45 45 45 45 236 236 236 236 237 237 237 237 237 237 237 122
 122 122 122 122 122 70 252 252 252 252 45 45 45 45 45 82 82 236 249 236
 61 237 237 237 237 237 237 237 95 122 122 122 122 70 70 252 252 252 252 82
 82 82 82 82 82 82 249 249 61 61 61 61 51 237 152 237 95 95 95 122
 122 122 70 180 180 180 180 180 82 82 82 82 82 82 82 249 61 61 61 61
 61 61 152 152 95 95 95 95 20 20 20 180 180 180 180 180 180 82 82 82
 82 82 82 82 61 61 61 61 61 61 61 152 152 95 95 95 95 20 20 20
 103 103 62 62 62 62 82 82 82 82 82 206 206 61 61 61 61 61 61 61
 28 28 28 95 20 20 20 20 103 103 103 62 62 62 62 206 206 206 169 169
 169 169 61 61 61 61 61 61 61 28 28 28 212 20 20 20 20 103 103 103
 42 42 42 42 42 206 206 206 169 169 169 61 61 61 61 61 61 61 251 251
 251 212 212 246 73 73 73 42 42 42 42 42 42 42 206 206 206 169 169 141
 61 61 61 61 61 61 28 251 251 251 212 212 246 246 246 246 44 44 44 44
 44 44 44 206 166 206 169 141 141 141 141 61 61 54 54 212 212 212 212 212
 212 246 246 246 44 44 44 44 44 44 44 44 44 166 206 169 141 141 141 141
 234 234 54 54 54 212 212 212 212 212 246 246 246 64 64 44 44 44 44 44
 44 106 106 106 169 141 141 141 11 11 11 54 54 54 54 212 212 212 212 212
 246 196 64 64 64 44 44 44 106 106 106 106 141 141 141 141 141 11 11 11
 54 54 54 54 212 212 212 212 212 196 196 64 64 64 64 106 106 106 106 106
 106 141 141 141 141 141 11 11 11 54 54 54 54 54 212 212 16 16 196 196
 64 64 64 64 106 106 106 106 106 88 141 141 141 141 141 11 11 11 11 54
 54 54 54 16 16 16 16 16 196 64 64 64 64 203 203 203 203 203 88 141
 141 141 115 115 115 115 11 11 54 54 40 40 16 16 16 16 16 16 75 75
 75 75 203 203 203 203 203 203 158 141 115 115 115 115 115 115 11 40 40 40
 40 40 16 16 16 16 16 75 75 75 75 75 203 203 203 203 158 158 158 242
 242 242 242 242 242 40 40 40 40 40 40 16 16 16 16 75 75 75 75 75
 75 203 203 203 203 158 158 158 242 242 242 242 242 242 40 40 40 40 40 40
 40 16 16 32 32 75 75 75 75 75 83 83 83 83 158 158 158 242 242 242
 242 242 242 40 40 40 40 40 40 40 16 32 32 32 32 75 75 75 75 83
 83 83 83 52 158 158 127 127 127 242 242 242 40 40 40 40 40 40 40 32
 32 32 32 32 222 222 222 222 83 83 83 52 52 52 52 127 127 127 127 127
 74 175 175 175 175 175 175 175 32 32 32 32 32 222 222 222 222 222 52 52
 52 52 52 52 127 127 127 127 74 74 74 175 175 175 175 175 175 32 32 32
 32 32 222 222 222 99 99 99 99 52 52 52 127 127 127 127 127 74 74 74
 175 175 175 175 175 175 85 85 85 85 32 222 222 222 99 99 99 99 52 52
 52 127 127 127 127 127 74 74 74 74 175 175 175 175 175 85 85 85 85 85
 222 222 99 99 99 99 99 77 77 52 127 127 127 127 74 74 74 74 74 175
 175 22 22 22 102 102 102 102 102 102 4 4 99 99 99 99 77 77 45 127
 45 45 45 48 48 48 48 237 237 237 22 22 22 102 102 102 102 102 102 245
 245 245 245 99 99 77 45 45 45 45 45 45 79 48 48 48 237 237 237 237
 22 22 102 102 102 102 102 102 245 245 245 245 245 245 45 45 45 45 45 45
 45 236 48 48 237 237 237 237 237 237 233 233 102 102 102 102 70 70 245 245
 245 245 245 45 45 45 45 45 45 45 249 249 249 237 237 237 237 237 237 233
 233 233 233 122 70 70 70 70 245 245 245 245 45 45 45 45 45 249 249 249
 249 249 237 237 237 237 237 233 233 233 233 233 233 70 70 70 70 245 245 245
 82 82 45 45 45 82 249 249 249 249 249 61 152 152 152 152 233 233 233 233
 233 233 70 70 70 70 180 180 180 82 82 82 82 82 82 249 249 249 249 61
 61 61 152 152 152 152 233 95 233 233 233 70 70 70 180 180 180 180 82 82
 82 82 82 82 249 249 249 61 61 61 61 152 152 152 152 95 95 95 20 20
 103 103 103 103 62 62 62 82 82 82 82 82 19 249 249 61 61 61 61 61
 61 152 152 212 86 86 86 20 103 103 103 103 103 62 62 62 19 19 19 19
 19 19 249 61 61 61 61 61 61 61 212 212 212 86 86 86 86 121 103 103
 103 103 46 46 46 46 19 19 19 19 192 192 61 61 61 61 61 61 212 212
 212 212 212 86 86 86 121 121 103 46 46 46 46 46 46 166 166 166 166 192
 192 61 61 61 61 61 61 212 212 212 212 212 212 86 86 121 121 46 46 46
 46 46 46 46 166 166 166 166 141 141 141 11 11 11 54 54 212 212 212 212
 212 212 86 246 121 121 44 44 44 44 44 44 44 44 166 166 166 141 141 141
 11 11 11 54 54 54 212 212 212 212 212 246 246 246 64 64 44 44 44 44
 44 44 106 166 166 166 141 141 11 11 11 11 11 54 54 54 212 251 251 251
 251 251 196 64 64 64 44 44 44 106 106 106 173 173 141 141 141 11 11 11
 11 11 54 54 54 212 212 251 251 251 251 196 64 64 64 64 106 106 106 106
 106 173 173 141 141 141 11 11 11 11 11 54 54 54 54 212 251 251 251 111
 204 64 64 64 64 203 203 203 203 203 173 173 141 141 141 11 11 11 11 11
 11 54 54 54 16 16 16 16 16 204 204 64 75 75 203 203 203 203 203 203
 173 141 141 242 115 11 11 11 11 11 54 40 40 16 16 16 16 16 204 75
 75 75 75 203 203 203 203 203 203 158 158 242 242 242 242 242 242 11 40 40
 40 40 40 16 16 16 16 75 75 75 75 75 203 203 203 203 203 158 158 158
 242 242 242 242 242 242 40 40 40 40 40 40 16 16 16 75 75 75 75 75
 75 75 203 203 203 203 158 158 158 242 242 242 242 242 242 40 40 40 40 40
 40 40 16 32 32 32 75 75 75 75 75 203 203 203 229 158 158 158 242 242
 242 242 242 242 40 40 40 40 40 40 40 32 32 32 32 32 75 75 75 75
 75 83 83 229 158 158 158 127 127 242 242 242 242 242 40 40 40 40 40 40
 32 32 32 32 32 222 222 222 222 222 83 52 52 52 52 52 127 127 127 127
 242 242 175 175 175 175 175 175 175 32 32 32 32 32 222 222 222 222 222 52
 52 52 52 52 127 127 127 127 127 127 74 175 175 175 175 175 175 175 32 32
 32 32 32 222 222 222 222 99 99 99 52 52 52 127 127 127 127 127 74 74
 74 175 175 175 175 175 175 248 248 248 248 32 222 222 222 99 99 99 99 52
 52 52 127 127 127 127 127 48 48 48 175 175 175 175 22 22 248 248 85 248
 248 248 4 4 99 99 99 99 154 154 154 127 127 127 127 48 48 48 48 48
 175 22 22 22 22 22 102 102 102 102 102 4 4 4 4 99 99 154 45 45
 45 45 45 48 48 48 48 48 48 237 22 22 22 22 22 102 102 102 102 102
 4 4 4 4 4 154 45 45 45 45 45 45 45 48 48 48 48 48 237 22
 22 22 22 233 102 102 102 102 245 245 245 245 245 245 245 45 45 45 45 45
 45 45 184 48 48 48 237 237 237 22 22 233 233 233 102 102 70 70 70 245
 245 245 245 245 45 45 45 45 45 45 45 249 249 48 48 237 237 237 237 233
 233 233 233 233 102 70 70 70 70 245 245 245 245 45 45 45 45 45 249 249
 249 249 249 249 237 237 237 237 233 233 233 233 233 233 70 70 70 70 245 245
 245 245 45 45 45 45 249 249 249 249 249 249 249 152 152 152 152 233 233 233
 233 233 233 70 70 70 70 70 245 245 82 82 82 82 82 249 249 249 249 249
 249 241 241 152 152 152 152 233 233 233 233 233 70 70 70 70 70 46 46 19
 19 19 19 19 19 249 249 249 249 241 241 241 152 152 152 152 233 233 233 233
 233 103 103 103 103 46 46 46 19 19 19 19 19 19 249 249 249 241 241 241
 241 152 152 152 86 86 86 86 86 121 103 103 103 103 46 46 46 46 19 19
 19 19 19 249 249 241 241 241 241 241 241 212 86 86 86 86 86 86 121 121
 103 103 46 46 46 46 46 19 19 19 19 192 192 61 241 241 241 241 241 212
 212 212 212 86 86 86 86 121 121 121 46 46 46 46 46 46 166 166 166 192
 192 192 192 241 241 241 241 241 212 212 212 212 212 86 86 86 121 121 121 46
 46 46 46 46 46 166 166 166 166 192 192 11 11 11 11 11 11 212 212 212
 212 212 212 86 86 121 121 121 46 46 46 46 46 46 166 166 166 166 141 11
 11 11 11 11 11 11 54 212 212 251 251 251 86 86 121 121 121 46 46 46
 46 46 46 166 166 166 166 173 11 11 11 11 11 11 11 11 54 212 251 251
 251 251 251 9 9 9 9 44 44 44 1 1 173 173 173 173 173 11 11 11
 11 11 11 11 11 54 212 251 251 251 251 111 9 9 9 9 9 203 203 203
 173 173 173 173 173 173 11 11 11 11 11 11 11 11 54 54 251 251 111 111
 111 204 204 9 9 9 203 203 203 203 173 173 173 173 72 11 11 11 11 11
 11 11 11 11 11 111 111 111 111 204 204 204 204 9 9 203 203 203 203 203
 173 173 72 242 242 242 242 11 11 11 11 11 40 40 40 16 16 204 204 204
 204 204 75 75 203 203 203 203 203 203 158 158 242 242 242 242 242 242 11 40
 40 40 40 40 40 16 204 204 204 204 75 75 75 203 203 203 203 203 158 158
 158 242 242 242 242 242 242 242 40 40 40 40 40 40 16 204 204 204 75 75
 75 75 75 203 203 203 229 158 158 158 242 242 242 24 242 242 40 40 40 40
 40 40 40 16 32 32 75 75 75 75 75 75 203 203 229 229 158 158 158 242
 242 242 242 242 242 242 40 40 40 40 40 40 32 32 32 32 75 75 75 75
 75 75 229 229 229 158 158 158 127 242 242 242 242 242 242 163 163 163 163 163
 163 32 32 32 32 222 222 222 222 222 222 229 229 229 158 158 158 127 127 127
 242 242 242 163 163 163 163 163 163 163 32 32 32 32 222 222 222 222 222 222
 154 154 52 52 52 127 127 127 127 127 127 163 163 163 163 163 163 163 163 248
 248 248 32 222 222 222 222 222 222 154 154 154 154 154 127 127 127 127 127 48
 48 163 163 163 163 163 163 163 248 248 248 248 248 222 222 222 76 99 154 154
 154 154 154 127 127 127 127 48 48 48 48 163 250 250 163 22 22 248 248 248
 248 248 248 76 76 76 76 154 154 154 154 154 154 127 127 127 48 48 48 48
 48 250 250 22 22 22 22 248 248 248 248 248 76 4 4 4 76 154 154 154
 154 154 45 45 184 48 48 48 48 48 250 22 22 22 22 22 102 102 102 102
 76 76 4 4 4 76 154 154 154 45 45 45 45 184 48 48 48 48 48 48
 22 22 22 22 233 233 102 102 102 245 245 245 245 245 245 154 154 45 45 45
 45 45 184 184 48 48 48 48 48 67 67 67 233 233 233 233 102 70 70 70
 245 245 245 245 245 45 45 45 45 45 45 184 249 249 48 48 48 67 67 67
 233 233 233 233 233 233 70 70 70 70 245 245 245 245 45 45 45 45 45 249
 249 249 249 249 198 198 198 152 67 233 233 233 233 233 233 70 70 70 70 245
 245 245 245 45 45 45 45 249 249 249 249 249 249 198 198 198 152 152 233 233
 233 233 233 233 70 70 70 70 70 245 245 245 19 45 45 45 249 249 249 249
 249 249 198 198 198 152 152 233 233 233 233 233 233 70 70 70 70 70 46 46
 19 19 19 19 19 19 249 249 249 249 241 241 198 198 152 152 134 134 134 134
 134 121 121 121 46 46 46 46 46 19 19 19 19 19 19 249 249 249 241 241
 241 241 198 152 134 134 134 134 134 134 121 121 121 46 46 46 46 46 46 19
 19 19 19 19 249 249 241 241 241 241 241 241 212 86 86 86 86 86 86 121
 121 121 46 46 46 46 46 46 192 19 19 19 192 192 249 241 241 241 241 241
 241 212 212 86 86 86 86 86 121 121 121 46 46 46 46 46 46 192 192 166
 192 192 192 192 241 241 241 241 241 212 212 212 212 86 86 86 121 121 121 121
 46 46 46 46 46 46 192 192 192 192 192 192 11 11 11 11 11 11 212 212
 212 212 212 86 86 121 121 121 121 46 46 46 46 46 46 192 192 192 192 192
 11 11 11 11 11 11 11 11 212 212 212 212 251 86 121 121 121 121 46 46
 46 46 46 46 192 192 192 192 173 173 11 11 11 11 11 11 11 11 212 251
 251 251 251 111 9 9 9 9 9 9 1 1 1 173 173 173 173 173 173 11
 11 11 11 11 11 11 11 212 251 111 111 111 111 9 9 9 9 9 9 1
 1 173 173 173 173 173 173 173 11 11 11 11 11 11 11 11 11 111 111 111
 111 111 204 9 9 9 9 9 203 203 173 173 173 173 173 72 72 11 11 11
 11 11 11 11 11 111 111 111 111 111 204 204 204 9 9 9 203 203 203 203
 173 173 173 72 72 242 242 242 11 11 11 11 41 41 41 111 111 111 204 204
 204 204 204 9 9 203 203 203 203 203 72 72 72 242 242 242 242 242 242 242
 41 40 40 40 225 225 111 204 204 204 204 204 75 75 203 203 203 203 229 229
 158 158 242 242 242 242 242 242 242 40 40 40 40 225 225 225 204 204 204 204
 75 75 75 75 203 203 229 229 229 158 158 242 242 242 242 242 242 242 40 40
 40 40 225 225 225 204 204 204 75 75 75 75 75 203 229 229 229 229 158 158
 242 242 242 242 242 242 242 163 163 163 163 163 163 225 32 32 32 75 222 75
 75 75 75 229 229 229 229 158 158 242 242 242 242 242 242 242 163 163 163 163
 163 163 163 32 32 32 222 222 222 222 222 222 229 229 229 229 158 158 127 127
 127 242 242 242 163 163 163 163 163 163 163 163 248 32 32 222 222 222 222 222
 222 154 229 229 229 158 158 127 127 127 127 66 163 163 163 163 163 163 163 163
 248 248 248 248 222 222 222 222 222 154 154 154 154 154 154 127 127 127 127 66
 66 163 163 163 163 163 163 163 163 248 248 248 248 248 222 222 76 76 76 154
 154 154 154 154 154 127 127 127 48 48 48 163 163 250 250 250 163 22 248 248
 248 248 248 248 76 76 76 76 154 154 154 154 154 154 127 184 184 48 48 48
 48 250 250 250 250 22 22 248 248 248 248 248 248 76 76 76 76 154 154 154
 154 154 154 45 184 184 184 48 48 48 48 250 250 22 22 22 22 248 248 248
 248 76 76 76 76 76 76 154 154 154 154 45 45 184 184 184 184 48 48 48
 250 22 22 67 67 233 233 102 248 191 76 76 76 76 76 76 154 154 45 45
 45 45 184 184 184 184 184 48 48 67 67 67 67 67 233 233 233 191 101 101
 70 245 245 245 245 245 45 45 45 45 45 184 184 184 184 184 184 198 67 67
 67 67 233 233 233 233 233 101 101 70 70 245 245 245 245 45 45 45 45 45
 249 249 249 249 249 198 198 198 198 67 233 233 233 233 233 233 101 101 70 101
 245 245 245 245 45 45 45 45 249 249 249 249 249 249 198 198 198 198 67 233
 233 233 233 233 233 70 70 70 101 101 245 245 245 19 19 19 19 249 249 249
 249 249 249 198 198 198 198 152 134 233 233 233 233 233 70 70 70 101 101 46
 46 19 19 19 19 19 19 249 249 249 249 241 198 198 198 198 198 134 134 134
 134 134 121 121 121 46 46 46 46 46 19 19 19 19 19 19 249 249 249 241
 241 241 241 198 198 134 134 134 134 134 134 121 121 121 46 46 46 46 46 46
 19 19 19 19 19 249 249 241 241 241 241 241 198 198 134 134 134 134 134 121
 121 121 121 46 46 46 46 46 46 19 19 19 19 166 166 249 241 241 241 241
 241 241 212 212 86 86 86 86 121 121 121 121 46 46 46 46 46 46 192 192
 166 166 166 166 166 241 241 241 241 209 209 212 212 86 86 86 86 121 121 121
 121 121 46 46 46 46 46 192 192 192 166 166 166 11 11 11 11 11 11 11
 212 212 86 86 86 86 121 121 121 121 121 46 46 46 46 46 192 192 192 192
 166 11 11 11 11 11 11 11 11 11 212 212 212 251 86 121 121 121 121 121
 46 46 46 46 46 192 173 173 173 173 173 11 11 11 11 11 11 11 11 212
 251 111 111 111 111 138 9 9 9 9 9 1 1 1 1 173 173 173 173 173
 11 11 11 11 11 11 11 11 11 111 111 111 111 111 111 9 9 9 9 9
 1 1 1 1 173 173 173 72 72 11 11 11 11 11 11 11 11 111 111 111
 111 111 111 111 9 9 9 9 9 9 1 1 1 173 173 173 72 72 11 11
 11 11 11 11 41 41 111 111 111 111 111 111 204 204 9 9 9 9 203 1
 1 1 173 72 72 72 72 242 242 11 11 41 41 41 41 41 111 111 111 111
 204 204 204 204 9 9 9 203 203 203 203 72 72 72 72 242 242 242 242 242
 41 41 41 41 225 225 225 111 111 204 204 204 204 204 75 203 203 203 229 229
 229 72 72 242 242 242 242 242 242 41 41 41 41 225 225 225 225 111 204 204
 204 204 75 75 75 203 203 229 229 229 229 158 242 242 242 242 242 242 41 41
 41 225 225 225 225 225 225 204 204 204 75 75 75 75 203 229 229 229 229 229
 158 242 242 242 242 242 242 242 163 163 163 225 225 225 225 225 204 204 222 222
 75 75 75 75 229 229 229 229 229 158 242 242 242 242 242 242 163 163 163 163
 163 163 163 163 32 32 222 222 222 222 222 222 222 229 229 229 161 161 161 127
 66 66 66 66 163 163 163 163 163 163 163 163 163 248 248 222 222 222 222 222
 222 222 161 161 161 161 161 161 66 66 66 66 66 66 163 163 163 163 163 163
 163 248 248 248 248 248 222 222 222 76 154 154 154 154 154 154 154 127 66 66
 66 66 163 163 163 163 163 163 163 163 248 248 248 248 248 248 76 76 76 76
 154 154 154 154 154 154 127 66 66 66 213 48 163 163 250 250 250 250 248 248
 248 248 248 248 248 76 76 76 76 154 154 154 154 154 154 157 184 184 184 48
 48 48 250 250 250 250 250 22 248 248 248 248 248 248 76 76 76 76 154 154
 154 154 154 154 157 184 184 184 184 48 48 48 250 250 250 22 67 248 248 248
 248 248 191 76 76 76 76 76 154 154 154 154 154 157 184 184 184 184 184 48
 48 250 67 67 67 67 67 248 248 191 191 191 76 76 76 76 76 154 154 154