# vtk DataFile Version 2.0
Data set from ImportExport Version 6.5.171.b0b162591
ASCII

DATASET RECTILINEAR_GRID
DIMENSIONS 30 30 30
X_COORDINATES 30 float
-1.250000 1.250000 3.750000 6.250000 8.750000 11.250000 13.750000 16.250000 18.750000 21.250000 23.750000 26.250000 28.750000 31.250000 33.750000 36.250000 38.750000 41.250000 43.750000 46.250000 48.750000 
51.250000 53.750000 56.250000 58.750000 61.250000 63.750000 66.250000 68.750000 71.250000 
Y_COORDINATES 30 float
-1.250000 1.250000 3.750000 6.250000 8.750000 11.250000 13.750000 16.250000 18.750000 21.250000 23.750000 26.250000 28.750000 31.250000 33.750000 36.250000 38.750000 41.250000 43.750000 46.250000 48.750000 
51.250000 53.750000 56.250000 58.750000 61.250000 63.750000 66.250000 68.750000 71.250000 
Z_COORDINATES 30 float
-1.250000 1.250000 3.750000 6.250000 8.750000 11.250000 13.750000 16.250000 18.750000 21.250000 23.750000 26.250000 28.750000 31.250000 33.750000 36.250000 38.750000 41.250000 43.750000 46.250000 48.750000 
51.250000 53.750000 56.250000 58.750000 61.250000 63.750000 66.250000 68.750000 71.250000 
CELL_DATA 24389
SCALARS FeatureIds int 1
LOOKUP_TABLE default
 63 63 63 63 63 63 63 63 63 228 228 228 228 228 201 201 201 201 201 201
 214 83 83 4 4 4 4 186 186 97 97 14 14 14 14 14 14 14 228 228
 228 228 228 201 201 201 201 201 214 214 83 83 83 4 4 4 186 186 97 97
 14 14 14 14 14 14 14 228 228 228 228 228 228 201 201 49 49 214 214 83
 83 83 83 4 4 4 4 97 97 14 14 14 14 14 14 14 228 228 228 228
 228 228 49 49 49 49 49 214 83 83 83 83 83 4 4 97 97 97 97 14
 14 14 14 14 14 228 228 228 228 228 228 49 49 49 49 229 229 83 83 83
 83 83 83 97 97 97 97 97 14 14 14 14 14 14 228 228 228 228 228 40
 40 49 49 229 229 229 229 83 83 83 6 6 6 97 97 97 97 154 154 154
 154 154 154 228 228 228 228 40 40 40 40 40 229 229 229 229 83 6 6 6
 6 6 97 97 97 154 154 154 154 154 18 18 18 18 228 40 40 40 40 40
 40 229 229 229 229 83 6 6 6 6 6 97 135 135 154 154 154 154 18 18
 18 18 18 18 40 40 40 40 40 40 229 229 234 234 234 6 6 108 108 108
 135 135 135 135 135 128 18 18 18 18 18 18 18 111 40 40 40 40 40 234
 234 234 234 234 234 6 108 108 135 135 135 135 135 135 88 88 18 18 18 18
 18 111 111 111 40 40 40 234 234 234 234 234 234 234 234 102 102 135 135 135
 135 135 135 88 88 88 18 18 18 220 220 111 111 111 111 40 234 234 234 234
 234 234 234 102 102 102 135 135 135 135 135 135 88 88 88 88 220 220 220 220
 111 111 82 82 82 234 234 234 234 245 245 245 102 102 102 102 135 135 135 135
 135 88 88 88 88 220 220 220 220 220 82 82 82 82 82 245 245 245 245 245
 245 102 102 102 102 135 135 135 135 153 153 153 153 153 220 220 220 220 220 82
 82 82 82 82 245 245 245 245 245 245 102 102 102 102 135 79 79 79 153 153
 153 153 153 220 220 220 220 220 82 82 82 82 82 245 245 245 245 245 207 207
 207 207 102 135 79 79 79 79 79 205 205 239 239 239 239 239 239 17 17 82
 82 82 82 166 166 166 166 207 207 207 207 207 207 79 79 79 79 79 205 205
 205 239 239 239 239 239 17 17 17 17 17 17 166 166 166 166 207 207 207 207
 207 207 79 79 79 79 205 205 205 205 205 239 239 239 239 17 17 17 17 17
 17 166 166 166 166 110 110 207 207 93 93 79 79 79 79 205 205 205 205 205
 205 239 239 239 17 17 17 17 17 17 166 166 166 110 110 110 110 110 93 93
 93 93 93 93 205 205 205 205 205 205 239 239 41 41 17 17 17 17 219 219
 219 219 110 110 110 110 110 93 93 93 93 93 93 205 205 205 205 205 205 239
 41 41 41 41 41 41 219 219 219 219 219 110 110 110 96 96 93 93 85 85
 85 85 85 205 205 205 205 205 28 28 28 41 41 41 155 155 219 219 219 219
 219 96 96 96 96 96 93 85 85 85 85 85 85 205 205 28 28 28 28 28
 28 179 155 155 155 219 219 219 219 219 96 96 96 96 96 85 85 85 85 85
 85 63 63 63 28 28 28 28 28 28 28 106 106 106 219 219 219 219 219 96
 96 96 96 96 96 85 85 85 85 63 63 63 63 28 28 28 28 28 28 106
 106 106 106 106 170 170 219 219 96 96 96 96 96 96 85 85 85 63 63 63
 63 63 63 28 28 28 28 28 106 106 106 106 106 170 170 170 170 96 96 96
 186 186 186 186 58 63 63 63 63 63 63 63 28 28 28 28 28 106 106 106
 106 106 106 170 170 170 186 186 186 186 186 186 186 58 63 63 63 63 63 63
 63 28 28 28 28 28 106 106 106 106 106 106 170 170 170 186 186 186 186 186
 186 63 63 63 63 63 63 63 63 63 228 228 228 228 112 112 201 201 201 201
 201 214 214 83 83 4 4 186 186 186 97 97 14 14 14 14 14 14 14 228
 228 228 228 112 112 112 201 201 201 214 214 214 83 83 83 83 4 186 186 97
 97 14 14 14 14 14 14 14 228 228 228 228 228 112 112 201 201 214 214 214
 83 83 83 83 83 4 4 97 97 97 97 14 14 14 14 14 14 228 228 228
 228 228 112 112 49 49 214 214 214 83 83 83 83 83 83 97 97 97 97 97
 14 14 14 14 14 14 228 228 228 228 228 228 49 49 49 229 229 229 83 83
 83 83 83 83 97 97 97 97 97 97 14 14 154 154 154 228 228 228 228 228
 40 40 49 229 229 229 229 229 83 83 83 83 83 97 97 97 97 97 154 154
 154 154 154 154 154 228 228 228 40 40 40 40 229 229 229 229 229 83 6 6
 6 6 97 97 97 97 154 154 154 154 154 154 18 18 18 18 40 40 40 40
 40 229 229 229 229 229 83 6 6 6 6 97 97 135 135 154 154 154 154 18
 18 18 18 18 18 111 40 40 40 40 40 229 234 234 234 234 6 6 108 108
 108 135 135 135 135 128 128 128 18 18 18 18 18 111 111 111 111 40 40 234
 234 234 234 234 234 234 6 108 108 135 135 135 135 135 135 88 88 18 18 18
 18 18 111 111 111 111 111 40 234 234 234 234 234 234 234 234 102 102 135 135
 135 135 135 135 88 88 88 18 18 18 18 111 111 111 111 111 111 234 234 234
 234 234 234 234 102 102 102 135 135 135 135 135 135 88 88 88 88 18 220 220
 111 111 111 111 111 82 234 234 234 234 234 234 234 102 102 102 135 135 135 135
 135 153 153 153 153 153 220 220 220 220 111 111 111 82 82 82 234 234 234 234
 245 245 102 102 102 102 135 135 135 135 153 153 153 153 153 220 220 220 220 220
 82 82 82 82 82 245 245 245 245 245 207 207 207 207 102 135 135 135 135 153
 153 153 153 153 239 239 239 239 239 82 82 82 82 82 245 245 245 245 245 207
 207 207 207 207 135 79 79 79 79 153 153 153 239 239 239 239 239 239 17 82
 82 82 82 82 166 166 166 207 207 207 207 207 207 207 79 79 79 79 79 205
 205 205 239 239 239 239 239 17 17 17 17 17 17 166 166 166 110 207 207 207
 207 207 93 93 93 93 93 205 205 205 205 205 239 239 239 239 17 17 17 17
 17 17 166 166 110 110 110 110 110 110 93 93 93 93 93 93 205 205 205 205
 205 239 239 239 41 41 17 17 17 17 219 110 110 110 110 110 110 110 110 93
 93 93 93 93 93 205 205 205 205 205 205 239 41 41 41 41 41 41 219 219
 219 219 110 110 110 110 110 110 93 93 93 93 93 93 205 205 205 205 205 205
 41 41 41 41 41 41 41 219 219 219 219 219 110 110 110 110 93 93 93 93
 93 93 93 93 205 205 205 205 205 28 41 41 41 41 41 41 219 219 219 219
 219 110 110 96 96 96 96 93 93 93 86 86 86 63 205 205 205 28 28 28
 179 179 179 41 41 219 219 219 219 219 219 96 96 96 96 96 93 58 58 58
 85 63 63 63 63 28 28 28 28 179 179 179 106 106 106 219 219 219 219 219
 96 96 96 96 96 96 58 58 58 63 63 63 63 63 63 28 28 28 28 28
 179 106 106 106 106 219 219 219 219 96 96 96 96 96 96 58 58 58 63 63
 63 63 63 63 28 28 28 28 28 106 106 106 106 106 106 170 170 38 38 186
 186 186 186 186 186 58 58 63 63 63 63 63 63 28 28 28 28 28 106 106
 106 106 106 106 106 106 38 186 186 186 186 186 186 186 58 58 63 63 63 63
 63 63 63 28 28 28 28 106 106 106 201 201 106 106 106 38 186 186 186 186
 186 186 97 97 63 63 63 63 63 63 63 163 163 163 112 112 112 112 201 201
 201 201 214 214 83 83 83 83 186 186 186 97 97 97 90 14 14 14 14 14
 163 163 163 112 112 112 112 201 201 201 214 214 214 83 83 83 83 83 186 97
 97 97 97 90 14 14 14 14 14 163 163 163 112 112 112 112 112 201 214 214
 214 83 83 83 83 83 83 13 97 97 97 97 14 14 14 14 14 14 163 163
 228 163 112 112 112 112 49 214 214 214 83 83 83 83 83 83 97 97 97 97
 97 97 14 14 14 14 14 163 163 163 163 77 77 112 49 49 229 229 229 83
 83 83 83 83 83 97 97 97 97 97 97 154 154 154 154 154 154 163 163 163
 77 77 40 229 229 229 229 229 229 83 83 83 83 83 97 97 97 97 97 154
 154 154 154 154 154 154 154 163 163 5 223 40 229 229 229 229 229 229 83 83
 83 83 6 97 97 97 97 97 154 154 154 154 154 154 18 18 223 223 5 223
 40 33 229 229 229 229 234 234 83 6 6 6 97 97 97 135 154 154 154 154
 154 18 18 18 18 223 111 111 111 40 33 33 234 234 234 234 234 234 6 108
 108 97 97 135 135 135 128 128 128 128 18 18 18 18 111 111 111 111 111 111
 234 234 234 234 234 234 234 234 121 121 135 135 135 135 135 128 128 128 128 18
 18 18 18 111 111 111 111 111 111 234 234 234 234 234 234 234 234 121 135 135
 135 135 135 135 135 88 88 88 128 18 18 111 111 111 111 111 111 111 234 234
 234 234 234 234 234 234 121 135 135 135 135 135 135 135 153 153 153 153 18 18
 111 111 111 111 111 111 111 234 234 234 234 234 234 234 114 114 114 135 135 135
 135 135 153 153 153 153 153 153 105 105 111 111 111 111 111 111 72 234 234 234
 234 234 114 114 114 114 114 135 135 135 135 153 153 153 153 153 153 239 239 105
 111 111 111 82 82 72 72 245 245 245 114 114 207 207 114 114 114 135 135 153
 153 153 153 153 153 239 239 239 239 239 82 82 82 82 160 160 160 245 245 114
 207 207 207 114 114 114 93 79 153 153 153 153 153 153 239 239 239 239 239 17
 82 82 82 160 160 160 160 160 207 207 207 207 114 114 114 93 93 93 153 153
 205 205 205 239 239 239 239 239 17 17 17 17 238 238 238 238 110 110 110 110
 114 114 114 114 93 93 93 93 205 205 205 10 239 239 239 239 239 17 17 17
 17 17 238 238 110 110 110 110 110 110 114 114 93 93 93 93 93 93 205 10
 10 205 239 239 239 41 41 41 41 41 17 193 193 110 110 110 110 110 110 110
 93 93 93 93 93 93 93 205 205 205 205 205 239 41 41 41 41 41 41 219
 219 219 110 110 110 110 110 110 110 93 93 93 93 93 93 93 205 205 205 205
 205 41 41 41 41 41 41 41 219 219 219 219 110 110 110 110 110 110 93 93
 93 93 93 93 93 50 205 205 205 205 41 41 41 41 41 41 41 219 219 219
 219 219 110 110 110 96 96 93 93 86 86 86 86 86 50 50 91 91 179 179
 179 179 179 179 41 41 219 219 219 219 219 219 110 96 96 96 96 93 58 58
 11 11 11 63 63 91 91 91 179 179 179 179 179 41 41 219 219 219 219 219
 219 38 96 96 96 96 11 11 58 58 11 63 63 63 63 91 28 28 179 179
 179 179 106 106 106 219 219 219 219 38 38 96 96 96 96 11 11 58 58 63
 63 63 63 63 63 28 28 28 28 179 179 106 106 106 106 106 219 212 38 38
 27 96 186 186 186 11 58 58 63 63 63 63 63 63 63 28 28 28 179 106
 106 106 106 106 106 106 212 38 38 27 186 186 186 186 11 58 58 63 63 63
 63 63 63 63 28 28 28 112 112 201 201 201 201 201 201 212 38 38 27 186
 186 186 186 13 97 90 90 63 63 63 63 163 163 163 163 112 112 112 112 112
 201 201 201 214 1 83 83 83 83 186 13 13 13 97 90 90 90 90 90 90
 163 163 163 163 163 112 112 112 112 112 201 214 214 214 83 83 83 83 13 13
 13 97 97 90 90 90 90 90 14 14 163 163 163 163 77 112 112 112 112 214
 214 214 83 83 83 83 83 13 13 13 97 97 97 90 90 90 90 14 107 163
 163 163 163 77 77 112 112 112 214 214 214 83 83 83 83 83 13 13 13 97
 97 97 90 90 90 154 154 154 163 163 163 163 77 77 77 112 49 229 229 229
 83 83 83 83 83 83 97 97 97 97 97 97 154 154 154 154 154 154 163 163
 163 77 77 77 33 229 229 229 229 229 83 83 83 83 97 97 97 97 97 97
 154 154 154 154 154 154 154 163 163 163 5 223 33 33 33 33 229 229 229 165
 83 83 83 97 97 97 97 97 97 154 154 154 154 154 154 154 223 223 223 5
 223 33 33 33 33 229 229 234 165 165 165 165 165 97 97 97 97 154 154 154
 154 154 154 154 18 223 223 223 223 223 223 33 33 33 33 234 234 234 165 165
 165 165 97 97 135 135 128 128 128 128 128 128 18 18 223 223 223 223 223 223
 33 33 234 234 234 234 234 234 121 121 121 135 135 135 135 135 128 128 128 128
 128 128 18 111 111 111 111 111 111 111 234 234 234 234 234 234 234 121 121 121
 135 135 135 135 135 128 128 128 128 128 128 105 105 111 111 111 111 111 111 72
 234 234 234 234 234 234 121 121 121 135 135 135 135 135 153 153 153 153 153 153
 105 105 105 111 111 111 111 111 72 72 72 234 234 234 234 114 114 114 114 135
 135 135 135 153 153 153 153 153 153 105 105 105 105 111 111 111 72 72 72 72
 72 234 234 114 114 114 114 114 114 135 135 135 153 153 153 153 153 153 105 105
 105 105 105 111 111 72 72 72 72 72 72 114 114 114 114 114 114 114 135 135
 153 153 153 153 153 153 7 239 239 105 105 105 82 82 160 160 160 160 160 160
 114 114 114 114 114 114 114 93 93 153 153 153 153 25 25 7 239 239 239 239
 239 82 82 160 160 160 160 160 160 114 114 114 114 114 114 114 93 93 93 153
 153 7 7 7 7 239 239 239 239 239 17 232 232 238 238 238 238 110 110 110
 114 114 114 114 114 93 93 93 93 10 10 10 10 10 239 239 239 239 41 41
 232 232 238 238 238 193 193 110 110 110 110 114 114 93 93 93 93 93 93 10
 10 10 10 10 239 239 41 41 41 232 232 232 193 193 193 193 110 110 110 110
 114 93 93 93 93 93 93 93 10 10 10 10 10 239 41 41 41 41 41 41
 41 193 193 193 110 110 110 110 110 110 93 93 93 93 93 93 93 10 10 10
 10 10 41 41 41 41 41 41 41 41 219 219 193 110 110 110 110 110 110 93
 93 93 93 93 93 50 50 50 10 10 10 41 41 41 41 41 41 41 219 219
 219 219 110 110 110 110 110 96 93 93 86 86 86 86 50 50 50 91 91 91
 179 179 179 179 179 41 41 219 219 219 219 219 38 38 38 27 96 96 93 58
 11 11 11 50 50 91 91 91 91 179 179 179 179 179 41 41 219 219 219 212
 212 38 38 38 27 27 96 11 11 11 11 11 63 63 91 91 91 91 179 179
 179 179 179 41 106 106 219 212 212 212 38 38 38 27 27 27 11 11 11 58
 11 63 63 91 91 91 91 91 179 179 179 179 106 106 106 119 212 212 212 38
 38 27 27 27 27 11 11 11 58 58 63 63 63 63 91 91 91 179 179 112
 112 112 112 106 119 212 212 212 38 38 27 27 27 27 11 11 11 58 63 63
 63 63 63 63 63 91 112 112 112 112 112 112 201 201 201 212 212 38 38 27
 27 186 186 186 13 13 90 90 90 90 90 107 163 163 163 163 163 112 112 112
 112 112 112 1 1 1 1 83 83 13 13 13 13 13 13 90 90 90 90 90
 107 163 163 163 163 163 77 112 112 112 112 201 1 1 1 1 83 83 13 13
 13 13 13 97 90 90 90 90 90 107 107 163 163 163 163 77 77 112 112 112
 214 214 1 1 83 83 83 13 13 13 13 13 97 97 90 90 90 90 107 107
 163 163 163 163 77 77 77 112 112 29 29 29 29 83 83 83 13 13 13 13
 97 97 97 90 90 90 154 107 107 163 163 163 163 77 77 77 77 29 29 29
 29 29 83 83 83 13 13 13 97 97 97 97 97 154 154 154 154 154 163 163
 163 163 77 77 77 33 33 29 29 29 29 165 165 83 83 97 97 97 97 97
 97 154 154 154 154 154 154 163 163 163 5 5 5 33 33 33 33 29 29 29
 165 165 165 165 165 97 97 97 97 97 154 154 154 154 154 154 154 5 5 5
 5 5 33 33 33 33 33 29 165 165 165 165 165 165 97 97 97 97 154 154
 154 154 154 154 154 154 223 223 223 223 223 223 33 33 33 33 33 165 165 165
 165 165 165 97 97 135 135 128 128 128 128 128 128 128 128 223 223 223 223 223
 223 33 33 33 234 234 234 165 165 121 121 121 121 135 135 135 128 128 128 128
 128 128 128 128 223 223 223 223 223 223 223 33 234 234 234 234 234 121 121 121
 121 121 135 135 135 19 128 128 128 128 128 128 105 105 105 111 111 111 111 111
 72 72 72 234 234 234 121 121 121 121 121 135 135 135 19 153 153 153 153 153
 153 105 105 105 105 111 111 111 111 72 72 72 72 72 234 114 121 114 114 114
 114 135 135 19 153 153 153 153 153 153 105 105 105 105 105 111 111 72 72 72
 72 72 72 114 114 114 114 114 114 114 135 135 153 153 153 153 153 153 153 105
 105 105 105 105 111 111 160 160 72 72 72 72 114 114 114 114 114 114 114 114
 114 153 153 153 153 153 7 7 7 105 105 105 105 111 160 160 160 160 160 160
 160 114 114 114 114 114 114 114 53 53 53 153 153 25 25 25 7 7 239 105
 105 105 232 232 160 160 160 160 160 160 114 114 114 114 114 114 114 53 53 53
 53 7 7 7 7 7 7 239 239 239 232 232 232 232 238 238 238 238 193 110
 110 114 114 114 114 114 53 53 53 53 7 7 7 7 7 7 239 239 41 232
 232 232 232 238 238 238 193 193 110 110 110 114 114 114 114 93 93 93 93 93
 10 10 10 10 10 239 41 41 41 232 232 232 232 238 193 193 193 110 110 110
 110 114 114 93 93 93 93 93 93 10 10 10 10 10 10 41 41 41 41 232
 232 232 193 193 193 193 110 110 110 110 110 93 93 93 93 93 93 93 10 10
 10 10 10 41 41 41 41 41 41 41 41 193 193 193 193 110 110 110 110 110
 93 93 93 93 93 93 50 50 50 50 10 10 41 41 41 41 41 41 41 41
 219 219 193 193 110 110 110 27 27 93 93 86 86 86 93 50 50 50 91 91
 91 41 41 179 41 41 41 41 41 219 212 212 212 38 38 38 27 27 27 86
 58 58 11 11 50 50 91 91 91 91 91 179 179 179 179 41 41 119 219 212
 212 212 38 38 38 27 27 27 11 58 58 11 11 50 91 91 91 91 91 91
 179 179 179 179 41 119 119 119 212 212 212 38 38 38 27 27 27 11 11 58
 58 11 63 91 91 91 91 91 91 194 179 179 179 119 119 119 119 212 212 212
 38 38 27 27 27 27 11 11 58 58 58 63 91 91 91 91 91 91 194 179
 119 119 119 119 119 119 212 212 212 38 38 27 27 27 27 11 11 58 58 58
 63 63 63 91 91 91 91 194 112 112 112 112 119 119 119 1 212 212 38 38
 27 27 27 27 186 13 13 90 90 90 43 107 107 107 163 163 163 163 163 143
 143 119 119 119 1 1 1 1 1 1 13 13 13 13 13 13 90 90 90 90
 107 107 107 163 163 163 163 77 143 143 143 143 1 1 1 1 1 1 1 13
 13 13 13 13 13 90 90 90 90 107 107 107 163 163 163 163 77 77 143 143
 143 29 1 1 1 1 1 83 13 13 13 13 13 97 97 90 90 90 107 107
 107 163 163 163 163 77 77 77 143 29 29 29 29 29 1 1 83 13 13 13
 13 97 97 97 90 90 90 107 107 107 163 163 163 163 77 77 77 77 29 29
 29 29 29 29 165 165 13 13 13 13 97 97 97 97 154 154 154 107 107 163
 163 163 163 77 77 77 33 33 29 29 29 29 165 165 165 165 13 13 97 97
 97 97 154 154 154 154 154 154 163 163 163 5 5 5 33 33 33 33 29 29
 144 165 165 165 165 165 97 97 97 97 97 154 154 154 154 154 154 154 163 5
 5 5 5 33 33 33 33 29 29 144 165 165 165 165 165 97 97 97 97 154
 154 154 154 154 154 154 154 223 223 223 223 223 223 33 33 33 33 29 165 165
 165 165 165 165 165 97 19 19 19 128 128 128 128 128 128 128 223 223 223 223
 223 223 33 33 33 33 234 165 165 165 121 121 121 121 121 19 19 19 19 128
 128 128 128 128 128 223 223 223 223 223 223 33 72 72 72 72 165 165 121 121
 121 121 121 121 19 19 19 19 19 128 128 128 128 105 105 105 223 74 74 74
 74 72 72 72 72 72 121 121 121 121 121 121 121 19 19 19 19 153 153 153
 153 153 105 105 105 105 105 111 111 72 72 72 72 72 72 121 121 121 121 114
 114 114 19 19 19 19 153 153 153 153 153 105 105 105 105 105 111 111 72 72
 72 72 72 72 114 114 114 114 114 114 114 114 19 19 153 153 153 153 7 7
 105 105 105 105 105 105 105 160 160 160 72 72 72 114 114 114 114 114 114 114
 114 114 53 153 153 153 7 7 7 7 105 105 105 105 105 160 160 160 160 160
 160 160 114 114 114 114 114 114 114 53 53 53 53 153 7 25 7 7 7 105
 105 105 105 232 232 160 160 160 160 160 160 114 114 114 114 114 114 114 53 53
 53 53 53 7 7 7 7 7 7 239 105 232 232 232 232 238 238 238 238 193
 193 114 114 114 114 114 114 53 53 53 53 53 7 7 7 25 7 7 239 41
 232 232 232 232 238 238 238 193 193 193 110 114 114 114 114 53 53 53 53 53
 53 7 7 7 7 25 25 41 41 41 232 232 232 232 238 193 193 193 193 110
 110 110 114 114 53 93 93 93 93 93 10 10 10 10 10 10 41 41 41 232
 232 232 232 238 193 193 193 193 110 110 110 110 53 53 93 93 93 93 93 50
 10 10 10 10 41 41 41 41 41 41 41 41 193 193 193 193 193 110 110 110
 27 93 93 93 93 93 93 50 50 50 50 50 91 41 41 41 41 41 41 41
 41 193 193 193 193 38 38 27 27 27 27 93 93 93 93 50 50 50 50 91
 91 91 91 41 41 41 41 41 41 41 119 212 212 212 38 38 27 27 27 27
 27 58 58 58 50 50 50 91 91 91 91 194 194 41 41 41 41 41 119 119
 212 212 212 38 38 27 27 27 27 27 58 58 58 11 50 91 91 91 91 91
 194 194 194 118 118 119 119 119 119 212 212 212 38 38 27 27 27 27 27 58
 58 58 11 91 91 91 91 91 91 194 194 194 118 119 119 119 119 119 212 212
 212 38 38 27 27 27 27 27 11 58 58 58 91 91 91 91 91 91 194 194
 194 119 119 119 119 119 119 119 212 212 38 38 27 27 27 27 27 11 58 58
 58 91 91 91 91 91 91 194 194 194 119 119 119 119 119 119 1 1 1 38
 38 27 27 27 27 27 13 13 43 43 43 43 43 107 107 163 163 163 163 143
 143 143 119 119 119 1 1 1 1 1 1 13 13 13 13 13 13 43 43 43
 43 107 107 107 163 163 163 163 77 143 143 143 143 1 1 1 1 1 1 1
 13 13 13 13 13 13 43 43 43 107 107 107 107 107 163 163 163 77 143 143
 143 143 29 1 1 1 1 1 1 13 13 13 13 13 97 97 169 107 107 107
 107 107 107 163 163 163 77 77 143 143 29 29 29 29 1 1 1 13 13 13
 13 13 13 97 97 169 107 107 107 107 107 107 163 163 163 77 77 77 143 29
 29 29 29 29 29 165 165 13 13 13 13 97 97 97 169 169 107 107 107 107
 107 163 163 163 77 77 77 33 29 29 29 29 29 165 165 165 165 61 13 97
 97 97 97 154 154 154 154 154 154 107 163 163 5 5 5 33 33 33 29 29
 29 144 165 165 165 165 165 61 97 97 97 97 154 154 154 154 154 154 154 5
 5 5 5 5 33 33 33 33 29 144 144 165 165 165 165 165 61 61 97 19
 19 19 154 154 154 154 154 223 223 223 223 223 223 223 33 33 33 29 144 144
 165 165 165 165 165 61 61 19 19 19 19 19 128 128 128 128 223 223 223 223
 223 223 223 33 33 33 29 144 165 165 165 165 121 121 121 121 19 19 19 19
 19 19 128 128 128 223 223 223 223 74 74 74 74 33 72 72 144 165 165 121
 121 121 121 121 121 19 19 19 19 19 19 128 128 128 105 105 105 74 74 74
 74 74 72 72 72 72 72 121 121 121 121 121 121 121 19 19 19 19 19 19
 153 153 105 105 105 105 105 74 74 74 74 72 72 72 72 72 72 121 121 121
 114 114 114 19 19 19 19 19 153 153 153 105 105 105 105 105 74 74 74 72
 72 72 72 72 72 114 114 114 114 114 114 114 114 19 19 19 19 153 153 7
 105 105 105 105 105 105 74 74 160 160 72 72 72 72 114 114 114 114 114 114
 114 114 114 53 19 37 37 7 7 7 7 105 105 105 105 74 160 160 160 160
 160 160 160 114 114 114 114 114 114 114 53 53 53 53 7 7 7 7 7 7
 105 105 105 105 232 232 160 160 160 160 160 160 114 114 114 114 114 114 114 53
 53 53 53 53 7 7 7 7 7 7 105 105 232 232 232 232 238 238 238 238
 193 193 114 114 114 114 114 53 53 53 53 53 53 7 7 25 25 25 25 25
 232 232 232 232 232 238 238 238 193 193 193 193 114 114 114 114 53 53 53 53
 53 53 7 7 7 25 25 25 41 41 41 232 232 232 232 238 193 193 193 193
 193 110 110 114 114 53 53 53 53 53 93 7 10 10 10 10 41 41 41 41
 232 232 232 232 193 193 193 193 193 193 110 110 114 53 53 244 93 93 93 93
 50 50 235 235 235 41 41 41 41 41 41 41 149 210 193 193 193 193 193 110
 27 27 53 53 93 93 93 50 50 50 50 235 235 235 118 118 118 118 118 41
 41 149 149 210 193 193 193 38 27 27 27 27 244 178 93 93 50 50 50 50
 91 91 91 194 118 118 118 118 118 41 149 119 212 212 212 38 38 27 27 27
 27 27 178 178 178 50 50 50 91 91 91 91 194 194 118 118 118 118 119 119
 119 212 212 212 38 38 27 27 27 27 27 178 178 178 178 50 91 91 91 91
 91 194 194 194 118 118 119 119 119 119 119 212 212 38 38 27 27 27 27 27
 178 178 178 178 91 91 91 91 91 91 194 194 194 194 119 119 119 119 119 119
 212 212 38 38 27 27 27 27 27 178 178 178 178 91 91 91 91 91 91 194
 194 194 119 119 119 119 119 119 119 119 212 38 38 27 27 27 27 27 178 178
 178 43 43 43 91 91 91 91 194 194 194 119 119 119 119 119 119 119 1 1
 38 38 27 27 27 27 27 13 43 43 43 43 43 43 43 107 107 163 163 143
 143 143 143 143 119 119 1 1 1 1 1 129 129 13 13 13 13 13 43 43
 43 43 43 107 107 107 163 163 163 143 143 143 143 143 1 1 1 1 1 1
 129 13 13 13 13 13 13 43 43 43 43 107 107 107 107 163 163 163 77 143
 143 143 143 29 1 1 1 1 1 1 13 13 13 13 13 169 169 169 107 107
 107 107 107 107 163 163 163 77 77 143 143 29 29 29 29 1 1 1 1 13
 13 13 13 13 169 169 169 169 107 107 107 107 107 163 163 163 77 77 77 143
 29 29 29 29 29 1 165 165 61 61 13 13 169 169 169 169 169 107 107 107
 107 107 163 163 163 77 77 77 33 29 29 29 29 29 144 165 165 61 61 61
 13 169 169 169 169 169 169 107 107 107 107 163 163 5 5 5 33 33 29 29
 29 29 144 144 165 165 165 61 61 61 169 169 8 8 169 169 154 154 107 107
 5 5 5 5 5 33 33 33 29 29 144 144 144 165 165 165 61 61 61 19
 19 19 19 19 19 154 154 107 20 20 223 223 223 223 223 33 33 29 29 144
 144 165 165 165 165 61 61 61 19 19 19 19 19 19 128 128 20 20 223 223
 223 223 74 74 33 115 115 115 144 144 165 165 165 165 121 61 61 19 19 19
 19 19 19 19 19 20 20 74 74 74 74 74 74 74 115 115 115 115 115 165
 165 121 121 121 121 159 19 19 19 19 19 19 19 19 20 20 105 74 74 74
 74 74 115 115 115 115 115 115 115 121 121 121 121 159 159 19 19 19 19 19
 19 19 19 105 105 105 74 74 74 74 74 74 115 115 115 115 115 115 121 121
 114 159 159 159 19 19 19 19 19 37 37 37 37 105 105 105 74 74 74 74
 72 72 72 72 72 72 114 114 114 114 114 114 114 19 19 19 19 37 37 37
 37 37 105 105 105 105 74 74 74 72 72 72 72 72 72 114 114 114 114 114
 114 114 114 53 19 37 37 37 37 7 7 7 105 105 105 74 74 160 160 160
 160 160 160 160 114 114 114 114 114 114 114 53 53 53 37 37 37 7 7 7
 7 67 105 67 67 232 160 160 160 160 160 160 160 114 114 114 114 114 114 114
 53 53 53 53 37 37 7 7 7 7 67 67 67 67 232 232 232 173 173 173
 173 193 193 114 114 114 114 114 53 53 53 53 53 37 7 7 25 25 25 67
 67 67 232 232 232 232 173 173 173 193 193 193 193 114 114 114 114 53 53 53
 53 53 53 7 7 25 25 25 67 67 41 41 232 232 232 149 210 210 193 193
 193 193 114 114 114 53 53 244 53 53 244 244 7 7 235 25 25 41 41 41
 41 232 149 149 149 210 210 210 193 193 193 110 114 114 244 244 244 244 244 244
 244 50 235 235 235 235 235 118 118 118 118 149 149 149 210 210 210 92 92 92
 92 27 244 244 244 244 244 244 244 50 50 235 235 235 235 235 118 118 118 118
 149 149 149 149 210 210 92 92 92 27 27 27 244 244 178 178 178 178 50 50
 235 235 235 235 194 118 118 118 118 118 149 149 149 149 212 212 38 38 27 27
 27 27 178 178 178 178 178 50 50 235 235 235 194 194 194 118 118 118 118 149
 149 119 212 212 212 38 38 27 27 27 27 178 178 178 178 178 174 91 91 91
 91 194 194 194 194 118 118 119 119 119 119 119 212 212 38 38 27 27 27 27
 178 178 178 178 178 174 91 91 91 91 194 194 194 194 194 119 119 119 119 119
 119 246 212 38 38 27 27 27 27 178 178 178 178 178 43 43 91 91 91 194
 194 194 194 194 119 119 119 119 119 119 246 246 38 38 27 27 27 27 178 178
 178 178 43 43 43 43 43 91 194 194 194 194 119 119 119 119 119 119 119 1
 1 38 38 27 27 27 27 178 43 43 43 43 43 43 43 43 43 43 163 163
 143 143 143 143 143 119 119 1 1 1 1 129 129 129 129 213 13 13 43 43
 43 43 43 43 43 107 107 107 163 143 143 143 143 143 143 1 1 1 1 1
 129 129 129 13 13 13 13 169 43 43 43 43 107 107 107 107 107 163 163 143
 143 143 143 143 29 1 1 1 1 1 129 129 13 13 13 13 169 8 8 43
 107 107 107 107 107 107 163 163 77 143 143 143 29 29 29 29 1 1 1 1
 61 13 13 13 169 169 169 169 169 107 107 107 107 107 107 163 163 77 77 143
 29 29 29 29 29 29 1 1 61 61 61 61 13 169 169 169 169 169 169 107
 107 107 107 163 163 163 198 77 143 137 137 29 29 29 137 144 165 61 61 61
 61 61 169 169 169 8 169 169 107 107 107 107 163 163 5 198 5 33 33 29
 29 29 29 144 144 165 165 61 61 61 61 57 169 8 8 8 8 8 107 107
 20 20 20 156 156 5 68 68 29 29 29 144 144 144 165 165 61 61 61 61
 57 19 19 19 19 8 8 20 20 20 20 20 156 156 156 68 68 29 29 29
 144 144 165 165 165 61 61 61 61 19 19 19 19 19 19 19 20 20 20 20
 20 156 156 156 68 68 115 115 115 115 144 165 165 165 61 61 61 61 19 19
 19 19 19 19 19 20 20 20 20 20 74 74 74 68 68 115 115 115 115 115
 115 165 121 121 159 159 159 19 19 19 19 19 19 19 19 20 20 20 74 74
 74 74 74 115 115 115 115 115 115 115 121 159 159 159 159 159 19 19 19 19
 19 19 19 37 20 20 20 74 74 74 74 74 115 115 115 115 115 115 115 159
 159 159 159 159 159 19 19 19 19 19 37 37 37 37 105 105 74 74 74 74
 74 115 115 80 80 80 80 80 114 159 159 159 159 159 19 19 19 37 37 37
 37 37 37 105 105 74 74 74 74 74 80 80 80 80 80 80 114 114 114 159
 159 159 159 53 53 37 37 37 37 37 37 37 67 67 67 67 74 74 206 206
 206 206 206 206 206 114 114 114 114 114 114 114 53 53 53 37 37 37 37 37
 7 67 67 67 67 67 67 196 173 173 173 173 173 173 114 114 114 114 114 114
 114 53 53 53 37 37 37 37 37 7 67 67 67 67 67 196 196 173 173 173
 173 173 173 173 114 114 114 114 114 53 53 53 53 53 37 184 184 25 25 67
 67 67 67 67 67 232 173 173 173 173 173 173 193 193 114 114 114 53 53 244
 53 53 53 184 184 184 184 25 67 67 67 67 67 232 232 149 173 210 210 210
 92 92 92 114 114 114 244 244 244 244 244 244 244 184 235 235 235 235 235 118
 118 118 149 149 149 149 210 210 210 92 92 92 92 92 244 244 244 244 244 244
 244 235 235 235 235 235 235 235 118 118 118 118 149 149 149 210 210 210 92 92
 92 92 92 244 244 244 244 244 244 244 235 235 235 235 235 235 235 118 118 118
 118 149 149 149 149 210 210 92 92 92 92 27 208 208 244 178 178 178 178 235
 235 235 235 235 235 235 118 118 118 118 149 149 149 149 149 210 92 92 92 27
 27 208 208 178 178 178 178 174 174 235 235 235 235 235 194 194 118 118 118 149
 149 149 149 149 212 212 38 38 27 27 208 208 178 178 178 178 174 174 235 235
 235 235 194 194 194 194 118 118 119 119 119 119 119 246 246 129 129 129 129 27
 178 178 178 178 178 174 174 235 235 235 235 194 194 194 194 194 119 119 119 119
 119 246 246 246 129 129 129 129 27 178 178 178 178 178 178 174 43 43 235 191
 194 194 194 194 119 119 119 119 119 119 246 246 246 129 129 129 129 129 178 178
 178 178 178 43 43 43 43 43 43 194 194 194 194 143 143 119 119 119 119 246
 246 246 129 129 129 129 129 213 178 43 43 43 43 43 43 43 43 43 43 43
 163 143 143 143 143 119 119 119 246 1 129 129 129 129 129 129 213 213 43 43
 43 43 43 43 43 43 43 107 107 163 143 143 143 143 143 143 1 1 1 1
 1 129 129 129 129 213 213 13 43 43 43 43 43 43 107 107 107 107 163 163
 143 143 143 143 143 29 1 1 1 1 129 129 129 61 13 13 8 8 8 8
 8 43 107 107 107 107 107 163 198 198 143 143 143 29 29 29 29 1 1 1
 61 61 61 61 13 169 169 8 8 169 169 107 107 107 107 107 81 198 198 198
 143 137 137 137 137 137 137 137 61 61 61 61 61 61 169 169 169 8 169 169
 107 107 107 107 107 81 198 198 198 198 137 137 137 137 137 137 144 61 61 61
 61 61 61 57 169 169 8 8 169 107 107 107 107 81 81 198 198 68 68 137
 137 137 137 137 137 144 165 61 61 61 61 61 57 57 8 8 8 8 8 107
 20 20 20 20 156 156 68 68 68 68 29 29 144 144 144 165 61 61 61 61
 61 57 57 57 8 8 8 8 20 20 20 20 20 156 156 156 68 68 68 29
 115 144 144 144 165 61 61 61 61 61 57 19 19 19 19 19 19 20 20 20
 20 20 156 156 156 68 68 68 115 115 115 115 115 165 61 61 61 61 61 19
 19 19 19 19 19 19 20 20 20 20 20 156 156 68 68 68 115 115 115 115
 115 115 115 159 159 159 159 159 19 19 19 19 19 19 19 20 20 20 20 20
 74 74 68 68 68 115 115 115 115 115 115 115 159 159 159 159 159 159 19 19
 19 19 19 19 37 20 20 20 74 74 74 74 74 115 115 115 115 115 115 115
 159 159 159 159 159 159 159 19 19 19 37 37 37 37 37 101 20 74 74 74
 74 74 115 80 80 80 80 80 80 159 159 159 159 159 159 159 150 150 37 37
 37 37 37 37 67 67 67 74 74 74 74 80 80 80 80 80 80 80 114 159
 159 159 159 159 248 150 150 37 37 37 37 37 37 67 67 67 67 67 67 196
 206 206 206 206 206 206 206 114 159 159 159 159 159 248 248 248 37 37 37 37
 37 37 67 67 67 67 67 67 196 196 173 173 173 173 173 173 114 114 114 114
 114 159 248 248 248 37 37 37 37 37 67 67 67 67 67 67 196 196 196 173
 173 173 173 173 173 114 114 114 114 114 53 248 248 248 184 184 184 184 184 67
 67 67 67 67 67 67 196 196 173 173 173 173 173 173 173 114 114 114 53 53