# vtk DataFile Version 2.0
Data set from ImportExport Version 6.5.171.b0b162591
ASCII

DATASET RECTILINEAR_GRID
DIMENSIONS 30 30 30
X_COORDINATES 30 float
-1.250000 1.250000 3.750000 6.250000 8.750000 11.250000 13.750000 16.250000 18.750000 21.250000 23.750000 26.250000 28.750000 31.250000 33.750000 36.250000 38.750000 41.250000 43.750000 46.250000 48.750000 
51.250000 53.750000 56.250000 58.750000 61.250000 63.750000 66.250000 68.750000 71.250000 
Y_COORDINATES 30 float
-1.250000 1.250000 3.750000 6.250000 8.750000 11.250000 13.750000 16.250000 18.750000 21.250000 23.750000 26.250000 28.750000 31.250000 33.750000 36.250000 38.750000 41.250000 43.750000 46.250000 48.750000 
51.250000 53.750000 56.250000 58.750000 61.250000 63.750000 66.250000 68.750000 71.250000 
Z_COORDINATES 30 float
-1.250000 1.250000 3.750000 6.250000 8.750000 11.250000 13.750000 16.250000 18.750000 21.250000 23.750000 26.250000 28.750000 31.250000 33.750000 36.250000 38.750000 41.250000 43.750000 46.250000 48.750000 
51.250000 53.750000 56.250000 58.750000 61.250000 63.750000 66.250000 68.750000 71.250000 
CELL_DATA 24389
SCALARS FeatureIds int 1
LOOKUP_TABLE default
 47 39 39 39 39 67 67 67 67 67 67 233 233 233 233 233 217 217 217 37
 37 177 177 177 177 177 49 49 49 39 39 39 39 39 67 67 67 67 67 67
 233 233 233 233 233 217 217 217 217 217 177 177 177 177 177 49 49 49 39 39
 39 39 39 67 67 67 67 67 67 233 233 233 233 233 217 217 217 217 177 177
 177 177 177 177 177 49 49 21 75 75 75 75 75 67 67 67 67 67 233 233
 233 233 233 217 217 217 217 177 177 177 177 177 177 177 21 21 21 21 21 75
 75 75 67 67 67 214 46 46 233 233 233 233 217 217 217 217 177 177 177 177
 177 177 177 21 21 21 21 21 21 75 75 67 67 214 214 46 46 46 41 41
 41 41 217 217 8 177 177 177 177 177 177 177 21 21 180 180 180 180 75 75
 67 67 214 214 46 46 167 167 41 41 41 2 8 8 8 8 177 177 177 57
 57 180 180 180 180 180 180 180 180 46 46 46 214 46 46 167 167 167 41 41
 141 8 8 8 8 8 8 57 57 57 57 180 180 180 180 180 180 180 180 46
 46 214 167 167 167 167 167 167 141 141 141 8 8 8 8 8 57 57 57 57
 57 57 180 180 180 180 180 180 46 46 167 167 167 167 167 167 167 141 141 141
 8 8 8 8 8 57 57 57 57 57 57 180 180 180 180 180 97 185 150 167
 167 167 167 167 167 106 141 141 141 141 8 8 8 8 57 57 57 57 57 57
 57 180 180 97 97 97 185 150 196 196 92 92 92 106 106 141 141 141 141 141
 8 18 18 18 57 57 57 57 57 57 97 97 97 97 97 185 185 92 92 92
 92 92 106 106 106 141 141 193 193 193 18 18 18 57 57 57 57 57 57 97
 97 97 97 97 97 185 53 53 92 92 92 106 106 106 106 193 193 193 193 18
 18 18 18 57 57 57 100 97 97 97 97 97 97 97 97 53 53 53 92 92
 106 106 106 106 193 193 193 193 18 18 18 18 242 57 57 100 100 97 97 97
 97 97 97 97 53 53 53 53 92 106 106 106 106 205 205 205 205 205 205 242
 242 242 242 225 100 100 97 97 97 97 97 97 97 53 53 53 53 33 33 33
 33 205 205 205 205 205 205 205 242 242 242 242 242 100 100 100 97 25 25 97
 97 97 53 53 53 53 33 33 33 33 205 205 205 205 205 205 205 242 242 242
 242 242 135 100 100 25 25 25 25 25 25 60 60 60 60 33 33 33 33 205
 205 205 205 205 205 205 242 242 242 135 135 135 135 25 25 25 25 25 25 60
 60 60 60 60 60 33 33 33 205 205 205 205 205 205 205 135 135 135 135 135
 135 135 25 25 25 25 25 25 60 60 60 60 60 60 60 33 33 157 157 157
 157 157 157 103 103 103 135 135 135 135 135 135 25 25 25 25 25 60 60 60
 60 60 60 60 60 157 157 157 157 157 157 157 103 103 103 135 135 135 135 135
 135 25 25 25 25 25 60 60 60 60 60 219 219 219 219 157 157 157 157 157
 157 103 103 103 135 135 135 135 135 135 240 240 240 240 240 240 60 60 60 219
 219 219 219 219 109 109 109 109 109 109 17 103 1 1 1 135 135 47 47 47
 240 240 240 240 240 240 60 60 219 219 219 219 219 109 109 109 109 109 109 17
 1 1 1 1 1 47 47 47 47 200 240 240 240 111 111 60 60 219 219 219
 219 219 109 109 109 109 109 109 17 1 1 1 1 1 47 47 47 47 200 200
 240 111 111 111 215 215 215 219 219 219 37 37 37 37 37 201 201 201 1 1
 1 47 47 47 47 47 47 200 200 200 111 111 111 215 215 215 215 233 233 37
 37 37 37 37 37 37 37 37 1 47 47 47 47 47 39 39 200 200 200 67
 67 67 215 215 233 233 233 233 217 217 37 37 37 37 37 37 37 47 47 47
 47 39 39 39 39 39 67 67 67 67 67 67 233 233 233 233 217 217 217 217
 37 37 37 177 177 177 49 49 49 49 39 39 39 39 39 67 67 67 67 67
 67 233 233 233 233 217 217 217 217 217 37 177 177 177 177 177 49 49 49 39
 39 39 39 39 67 67 67 67 67 67 233 233 233 233 217 217 217 217 217 217
 177 177 177 177 177 49 49 49 21 21 39 39 39 67 67 67 67 67 46 46
 233 233 233 184 184 217 217 217 177 177 177 177 177 177 49 49 49 21 21 21
 21 75 67 67 67 46 46 46 46 46 233 41 184 184 184 184 184 177 177 177
 177 177 177 177 21 21 21 21 21 21 75 75 67 46 46 46 46 46 46 41
 41 41 41 184 184 184 177 177 177 177 177 177 57 21 21 180 180 180 180 180
 180 46 46 46 46 46 46 46 41 41 41 41 2 2 8 8 29 29 29 29
 57 57 57 180 180 48 180 180 180 180 46 46 46 46 46 46 46 41 41 41
 41 2 2 8 8 8 29 29 29 57 57 57 180 180 180 180 180 180 180 180
 46 46 46 46 46 167 207 207 207 207 2 141 8 8 8 29 29 29 57 57
 57 57 57 180 180 180 180 180 180 46 46 196 196 196 167 207 207 207 207 141
 141 141 8 8 8 29 57 57 57 57 57 57 180 180 180 180 180 185 185 150
 196 196 196 196 207 207 207 141 141 141 141 8 8 8 8 57 57 57 57 57
 57 180 180 180 97 185 185 185 150 196 196 196 92 92 106 106 106 141 141 141
 193 193 18 18 18 57 57 57 57 57 180 180 97 97 185 185 185 185 196 196
 92 92 92 106 106 106 106 193 193 193 193 18 18 18 57 57 57 57 57 100
 97 97 97 97 97 185 185 185 196 92 92 92 106 106 106 106 193 193 193 193
 18 18 18 18 57 57 57 100 100 97 97 97 97 97 97 185 53 53 92 92
 92 106 106 106 106 193 193 193 193 193 18 225 225 225 225 225 100 100 100 97
 97 97 97 97 185 53 53 53 92 92 106 106 106 106 205 205 205 205 205 205
 225 225 225 225 225 100 100 100 97 97 97 97 97 97 53 53 53 53 33 33
 33 33 205 205 205 205 205 205 205 242 242 242 225 100 100 100 100 97 97 97
 97 97 97 53 53 53 33 33 33 33 33 205 205 205 205 205 205 205 242 242
 242 135 100 100 100 100 25 25 25 25 25 25 60 60 60 60 33 33 33 33
 205 205 205 205 205 205 205 242 242 135 135 135 135 100 100 25 25 25 25 25
 60 60 60 60 60 60 33 33 33 205 205 205 205 205 205 103 103 103 135 135
 135 135 135 25 25 25 25 25 25 60 60 60 60 60 60 60 33 33 157 157
 157 157 157 157 103 103 103 135 135 135 135 135 25 25 25 25 25 25 60 60
 60 60 60 60 60 60 157 157 157 157 157 157 17 103 103 103 135 135 135 135
 135 135 25 25 25 25 25 60 60 60 60 60 219 219 219 219 157 157 157 157
 109 17 17 103 103 135 135 135 135 135 135 240 240 240 240 240 240 60 60 60
 219 219 219 219 219 109 109 109 109 109 109 17 17 103 135 135 135 135 135 47
 240 240 240 240 240 240 240 60 60 219 219 219 219 219 109 109 109 109 109 109
 17 17 17 135 135 135 47 47 47 200 200 240 240 240 240 240 60 60 219 219
 219 219 219 109 109 109 109 109 109 17 17 17 135 135 135 47 47 47 200 200
 200 240 240 240 240 215 215 215 219 219 219 37 37 37 37 37 37 109 17 17
 17 135 135 47 47 47 47 200 200 200 200 240 111 111 215 215 215 215 233 37
 37 37 37 37 37 37 37 37 17 49 49 47 47 47 39 39 39 200 200 200
 67 67 67 215 215 233 233 233 217 217 217 37 37 37 37 37 37 49 49 49
 49 47 49 39 39 39 39 67 67 67 67 67 67 233 233 233 233 217 217 217
 217 217 37 37 177 177 49 49 49 49 49 49 39 39 39 39 67 67 67 67
 67 67 67 233 233 233 217 217 217 217 217 217 177 177 177 177 49 49 49 49
 49 39 39 39 39 67 67 67 67 67 67 46 233 233 184 184 184 217 217 217
 177 177 177 177 177 49 49 49 49 21 21 39 39 39 67 67 67 67 46 46
 46 46 233 184 184 184 184 184 184 184 177 177 177 177 177 49 49 49 21 21
 21 21 39 67 67 46 46 46 46 46 46 184 184 184 184 184 184 184 177 177
 177 177 177 177 49 49 21 21 21 21 21 21 67 46 46 46 46 46 46 46
 41 41 41 184 184 184 184 177 177 177 177 177 177 57 21 21 180 180 180 180
 180 180 46 46 46 46 46 46 46 41 41 41 41 2 2 2 29 29 29 29
 29 29 57 57 180 180 180 180 180 180 180 46 46 46 46 46 46 46 41 41
 41 41 2 2 2 8 29 29 29 29 29 57 57 180 180 180 180 180 180 180
 46 46 46 46 46 46 207 207 207 207 207 2 2 2 8 29 29 29 29 57
 57 57 57 57 180 180 180 180 180 150 150 150 196 196 196 196 207 207 207 207
 207 141 141 8 8 29 29 29 57 57 57 57 57 180 180 180 180 150 150 150
 150 196 196 196 196 207 207 207 207 207 141 141 8 8 29 29 57 57 57 57
 57 57 57 180 180 150 150 150 150 150 196 196 196 196 92 106 106 106 106 141
 193 193 193 193 18 57 57 57 57 57 57 57 180 97 97 185 185 185 185 196
 196 196 92 92 106 106 106 106 193 193 193 193 193 84 84 57 57 57 57 57
 100 97 97 97 97 185 185 185 185 196 92 92 92 106 106 106 106 193 193 193
 193 193 84 84 225 225 225 225 100 100 97 97 97 97 185 185 185 185 196 92
 92 92 106 106 106 106 193 193 193 193 193 225 225 225 225 225 225 100 100 100
 97 97 97 97 97 185 185 53 92 92 92 106 106 106 205 205 205 205 205 205
 225 225 225 225 225 225 100 100 100 97 97 97 97 97 185 185 53 53 92 33
 33 33 33 205 205 205 205 205 205 205 225 225 225 225 100 100 100 100 100 97
 97 97 97 185 60 60 60 33 33 33 33 33 205 205 205 205 205 205 205 225
 225 225 225 100 100 100 100 100 25 25 25 25 25 60 60 60 60 33 33 33
 33 205 205 205 205 205 205 205 191 225 225 135 100 100 100 100 25 25 25 25
 25 60 60 60 60 60 60 33 33 33 205 205 205 205 205 205 205 135 135 135
 135 135 135 100 100 25 25 25 25 25 60 60 60 60 60 60 60 33 33 157
 157 157 157 157 157 103 103 103 135 135 135 135 135 100 25 25 25 25 25 60
 60 60 60 60 60 60 60 157 157 157 157 157 157 17 17 103 103 135 135 135
 135 135 135 25 25 25 25 25 60 60 60 60 60 219 219 219 219 109 157 109
 109 109 17 17 17 103 135 135 135 135 135 156 156 156 240 240 240 240 60 60
 60 219 219 219 219 219 109 109 109 109 109 17 17 17 17 135 135 135 135 135
 156 156 240 240 240 240 240 240 60 60 219 219 219 219 109 109 109 109 109 109
 17 17 17 17 135 135 135 135 47 47 200 200 240 240 240 240 240 60 60 219
 219 219 248 109 109 109 109 109 109 109 17 17 17 135 135 135 47 47 200 200
 200 200 240 240 240 240 240 215 219 219 219 248 37 37 37 37 37 37 109 17
 17 17 49 49 49 47 47 200 200 200 200 200 240 240 240 240 215 215 219 219
 37 37 37 37 37 37 37 37 17 17 49 49 49 49 39 39 39 39 200 200
 200 67 67 67 67 215 233 233 233 217 217 217 37 37 37 37 37 37 49 49
 49 49 49 49 39 39 39 39 124 124 124 124 124 124 124 233 233 233 217 217
 217 217 217 37 131 131 140 140 49 49 49 49 49 39 39 39 39 39 124 124
 124 124 124 124 233 184 184 184 184 217 217 217 217 177 177 177 140 49 49 49
 49 49 39 39 39 39 39 124 124 124 124 46 46 46 184 184 184 184 184 184
 184 184 177 177 177 177 49 49 49 49 21 39 39 39 39 39 124 124 46 46
 46 46 46 184 184 184 184 184 184 184 184 177 177 177 177 177 49 49 49 21
 21 21 21 39 39 124 46 46 46 46 46 46 184 184 184 184 184 184 184 184
 177 177 177 177 177 49 62 62 21 21 21 21 21 21 46 46 46 46 46 46
 46 41 41 41 184 184 184 184 184 29 29 29 29 29 62 62 62 180 180 180
 180 180 180 46 46 46 46 46 46 46 41 41 41 41 2 2 2 2 29 29
 29 29 29 62 62 62 180 180 180 180 180 180 46 46 46 46 46 46 46 41
 41 41 41 2 2 2 2 29 29 29 29 29 57 57 180 180 180 180 180 180
 180 46 46 46 46 46 46 207 207 207 41 207 2 2 2 2 29 29 29 29
 29 57 57 57 57 180 180 180 180 150 150 150 150 150 196 196 196 207 207 207
 207 207 2 2 2 29 29 29 29 57 57 57 57 57 180 180 180 150 150 150
 150 150 150 196 196 196 207 207 207 207 207 141 141 8 29 29 29 29 57 57
 57 57 57 57 180 150 150 150 150 150 150 150 196 196 196 196 207 207 207 207
 193 193 193 193 231 231 84 57 57 57 57 57 104 104 185 185 185 185 185 150
 150 196 196 196 92 106 106 106 106 193 193 193 193 193 84 84 84 84 84 57
 100 100 100 97 97 185 185 185 185 185 196 196 92 92 106 106 106 106 193 193
 193 193 193 84 84 84 84 225 225 100 100 100 120 97 185 185 185 185 185 196
 92 92 92 106 106 106 106 193 193 193 193 193 225 225 225 225 225 225 100 100
 100 120 97 97 185 185 185 185 53 92 92 92 106 106 106 205 205 205 205 205
 205 225 225 225 225 225 225 100 100 100 120 120 97 97 97 185 185 74 74 74
 74 33 33 33 205 205 205 205 205 205 225 225 225 225 225 225 100 100 100 120
 120 120 97 97 185 60 60 74 74 74 33 33 33 205 205 205 205 205 205 225
 225 225 225 225 189 100 100 100 120 120 120 25 25 60 60 60 60 74 74 33
 33 33 205 205 205 205 205 205 191 191 191 225 225 189 189 100 100 120 25 25
 25 25 60 60 60 60 60 60 33 33 33 205 205 205 205 205 205 191 191 191
 191 135 189 189 189 100 25 25 25 25 25 60 60 60 60 60 60 60 33 33
 157 157 157 157 157 17 191 191 103 135 135 135 135 135 100 25 25 25 25 25
 60 60 60 60 60 248 248 248 248 157 157 157 157 109 17 17 17 103 135 135
 135 135 135 156 156 156 156 25 240 60 60 60 60 248 248 248 248 158 109 109
 109 109 109 17 17 17 17 135 135 135 135 135 156 156 156 156 240 240 240 60
 60 248 248 248 248 248 158 109 109 109 109 109 17 17 17 17 135 135 135 135
 156 156 156 156 156 240 240 240 240 60 248 248 248 248 248 158 109 109 109 109
 109 17 17 17 17 135 135 135 229 229 156 156 156 240 240 240 240 240 240 248
 248 248 248 248 248 109 109 109 109 109 17 17 17 17 135 135 135 229 229 39
 200 200 200 240 240 240 240 240 248 248 248 248 248 248 37 37 234 234 234 17
 17 17 17 49 49 49 39 39 39 200 200 200 200 240 240 240 72 248 248 248
 248 248 37 37 37 37 37 37 37 17 140 49 49 49 49 39 39 39 39 39
 200 124 67 67 67 67 72 73 73 73 217 217 217 37 37 37 37 131 140 140
 49 49 49 49 49 39 39 39 39 124 124 124 124 124 124 124 73 73 73 184
 217 217 217 217 131 131 131 140 140 140 49 49 49 49 39 39 39 39 124 124
 124 124 124 124 124 73 184 184 184 184 184 184 184 131 131 131 140 140 140 49
 49 49 49 39 39 39 39 124 124 124 124 124 124 124 124 184 184 184 184 184
 184 184 184 131 131 140 140 140 49 49 49 49 39 39 39 39 124 124 124 46
 46 46 46 46 184 184 184 184 184 184 184 184 177 177 177 140 140 49 49 49
 21 21 21 21 232 124 124 46 46 46 46 46 46 184 184 184 184 184 184 184
 184 177 177 177 177 140 62 62 62 62 21 21 21 232 232 46 46 46 46 46
 46 46 41 41 184 184 184 184 184 184 29 29 29 29 62 62 62 62 62 180
 180 180 232 232 46 46 46 46 46 46 46 41 41 41 41 2 2 2 29 29
 29 29 29 29 62 62 62 180 180 180 180 180 232 46 46 46 46 46 46 41
 41 41 41 41 2 2 2 2 29 29 29 29 29 62 62 62 180 180 180 38
 38 150 150 46 46 46 46 196 207 207 207 41 207 2 2 2 29 29 29 29
 29 29 57 57 57 57 180 38 38 38 150 150 150 150 150 196 196 196 207 207
 207 207 207 2 24 231 231 231 231 231 231 57 57 57 57 180 38 38 150 150
 150 150 150 150 196 196 196 207 207 207 207 207 207 24 24 231 231 231 231 231
 231 57 57 57 104 91 91 150 150 150 150 150 150 196 196 196 196 207 207 207
 207 193 193 193 24 231 231 84 84 84 84 57 104 104 104 91 150 150 150 150
 150 150 196 196 196 196 106 106 106 106 193 193 193 71 84 84 84 84 84 84
 84 104 104 104 120 185 185 185 185 185 150 196 196 196 196 106 106 106 106 193
 193 193 193 84 84 84 84 84 84 84 100 100 120 120 120 185 185 185 185 185
 196 196 92 92 106 106 106 106 193 193 193 71 84 84 84 84 225 225 225 100
 100 120 120 120 120 185 185 185 185 74 74 74 74 74 106 106 205 205 205 205
 205 225 225 225 225 225 225 225 100 100 120 120 120 120 120 185 185 74 74 74
 74 74 74 74 33 205 205 205 205 205 225 225 225 225 225 225 225 189 100 120
 120 120 120 120 120 120 74 74 74 74 74 74 74 33 205 205 205 205 205 58
 225 225 225 225 225 189 189 100 120 120 120 120 120 120 60 60 74 74 74 74
 74 74 33 205 205 205 205 205 191 191 191 191 191 189 189 189 189 120 120 120
 120 25 25 60 60 60 60 74 74 74 74 33 205 205 205 205 155 191 191 191
 191 191 189 189 189 189 120 120 120 25 25 25 60 60 60 60 248 248 248 248
 7 158 157 157 157 155 191 191 191 191 191 189 189 135 189 120 120 156 25 25
 25 60 60 60 248 248 248 248 248 158 158 158 109 109 109 17 17 17 17 135
 135 135 135 189 156 156 156 156 156 187 60 60 248 248 248 248 248 248 158 158
 158 109 109 109 17 17 17 17 135 135 135 229 229 156 156 156 156 156 187 187
 60 248 248 248 248 248 248 158 158 158 109 109 109 17 17 17 17 135 135 135
 229 229 156 156 156 156 187 187 187 248 248 248 248 248 248 248 158 158 234 234
 234 109 17 17 17 17 17 135 135 229 229 229 156 156 156 187 187 187 187 248
 248 248 248 248 248 158 158 234 234 234 234 17 17 17 17 17 229 229 229 229
 229 156 156 200 187 187 187 187 72 248 248 248 248 248 158 234 234 234 234 234
 17 17 17 17 49 49 229 229 229 229 200 200 200 200 187 124 124 72 72 73
 73 73 73 73 234 234 234 234 234 131 140 140 140 49 49 49 39 39 39 39
 39 124 124 124 124 124 124 72 73 73 73 73 73 217 37 37 234 131 131 140
 140 140 49 49 49 49 39 39 39 124 124 124 124 124 124 72 72 73 73 73
 73 184 184 184 131 131 131 131 131 140 140 140 49 49 49 39 39 39 124 124
 124 124 124 124 124 124 73 73 73 184 184 184 184 131 131 131 131 131 140 140
 140 49 49 49 39 39 39 124 124 124 124 124 124 124 124 73 184 184 184 184
 184 184 184 131 131 131 131 140 140 140 12 12 49 39 39 232 232 232 124 124
 124 46 46 46 46 184 184 184 184 184 184 184 184 131 131 131 140 140 140 12
 12 62 62 232 232 232 232 232 46 46 46 46 46 46 184 184 184 184 184 184
 184 184 131 131 245 245 245 62 62 62 62 62 232 232 232 232 232 46 46 46
 46 46 46 226 226 184 184 184 184 184 184 29 29 29 245 245 62 62 62 62
 62 232 232 232 232 232 46 46 46 46 46 226 226 226 226 226 226 2 2 29
 29 29 29 29 245 62 62 62 62 38 38 38 38 232 232 46 46 46 46 46
 226 226 226 226 226 2 2 2 24 231 231 29 29 231 62 62 62 38 38 38
 38 38 38 150 150 46 46 46 46 226 226 226 207 207 2 2 24 24 24 231
 231 231 231 231 142 142 38 38 38 38 38 38 150 150 150 150 150 196 196 207
 207 207 207 207 207 24 24 24 231 231 231 231 231 142 57 38 38 38 38 38
 150 150 150 150 150 150 196 196 207 207 207 207 207 207 24 24 24 231 231 231
 231 231 231 57 104 104 91 91 91 150 150 150 150 150 150 196 196 196 207 207
 207 207 24 24 24 24 231 231 84 84 84 84 84 104 104 104 91 55 150 150
 150 150 150 150 196 196 196 106 106 106 106 193 71 71 71 71 84 84 84 84
 84 84 104 104 104 104 55 55 150 150 150 150 150 196 196 196 106 106 106 106
 193 71 71 71 71 84 84 84 84 84 84 104 104 104 120 55 55 55 150 150
 150 150 11 74 74 106 106 106 106 193 71 71 71 71 84 84 84 225 225 225
 225 120 120 120 120 120 120 185 150 11 11 11 74 74 74 74 106 205 205 205
 71 71 71 225 225 225 225 225 225 189 120 120 120 120 120 120 120 96 11 11
 11 74 74 74 74 74 205 205 205 58 58 58 225 225 225 225 225 225 189 120
 120 120 120 120 120 120 96 11 11 11 74 74 74 74 74 205 205 58 58 58
 58 225 225 225 225 225 189 189 189 120 120 120 120 120 96 96 11 11 11 74
 74 74 74 74 205 205 155 155 155 155 191 191 191 191 189 189 189 189 120 120
 120 120 120 96 153 153 153 153 74 74 74 7 7 7 205 155 155 155 155 191
 191 191 191 191 189 189 189 120 120 120 120 120 153 153 153 153 153 153 248 7
 7 7 7 158 31 155 155 155 191 191 191 191 191 189 189 189 120 120 120 156
 156 187 153 153 153 153 248 248 248 7 7 158 158 158 109 155 17 191 191 191
 191 191 189 229 229 156 156 156 156 156 187 153 153 153 248 248 248 248 248 158
 158 158 158 109 109 17 17 17 17 191 191 135 229 229 229 156 156 156 187 187
 187 187 248 248 248 248 248 248 158 158 158 234 234 234 17 17 17 17 135 135
 229 229 229 229 156 156 156 187 187 187 187 248 248 248 248 248 248 158 158 234
 234 234 234 17 17 17 17 17 229 229 229 229 229 229 156 187 187 187 187 187
 248 248 248 248 248 248 158 158 234 234 234 234 17 17 17 17 229 229 229 229
 229 229 229 156 187 187 187 187 187 72 72 73 73 73 73 158 234 234 234 234
 234 234 115 17 140 140 229 229 229 229 229 229 187 187 187 187 187 72 72 72
 73 73 73 73 73 234 234 234 234 234 131 131 140 140 140 49 49 229 229 229
 39 124 124 124 124 124 72 72 72 73 73 73 73 73 234 234 234 234 131 131
 131 140 140 140 49 49 12 12 39 124 124 124 124 124 124 124 72 72 73 73
 73 73 184 184 131 131 131 131 131 131 140 140 12 12 12 12 12 39 124 124
 124 124 124 124 124 124 72 73 73 73 73 184 184 184 131 131 131 131 131 140
 140 12 12 12 12 12 39 124 124 124 124 124 124 124 124 124 73 73 51 51
 51 184 184 184 131 131 131 131 140 140 12 12 12 12 12 232 232 232 232 232
 124 124 30 30 30 148 148 51 51 51 184 184 184 131 131 131 131 245 245 12
 12 12 62 62 232 232 232 232 232 30 30 30 30 46 148 148 51 51 51 51
 51 51 16 131 131 245 245 245 245 62 62 62 62 232 232 232 232 232 30 46
 46 46 46 148 226 226 226 226 226 184 184 24 231 245 245 245 245 245 62 62
 62 62 232 232 232 232 232 46 46 46 46 46 226 226 226 226 226 226 226 24
 24 231 231 231 245 245 62 62 62 142 38 38 38 232 232 232 46 46 46 46
 46 226 226 226 226 226 226 226 24 24 24 231 231 231 231 142 142 142 142 38
 38 38 38 38 38 150 150 46 46 226 226 226 226 226 226 226 226 24 24 24
 231 231 231 231 142 142 142 38 38 38 38 38 38 150 150 150 150 150 196 226
 226 226 226 226 226 24 24 24 24 231 231 231 231 231 142 142 38 38 38 38
 38 38 150 150 150 150 150 196 81 81 81 207 207 207 24 24 24 24 231 231
 231 231 231 142 142 104 104 91 91 91 55 150 150 150 150 150 81 81 81 81
 81 207 24 24 24 24 24 231 231 231 231 84 84 104 104 104 104 91 55 55
 55 150 150 150 150 196 81 81 81 81 110 110 71 71 71 71 71 231 84 84
 84 84 104 104 104 104 104 55 55 55 150 150 150 150 196 81 81 81 110 110
 110 110 71 71 71 71 84 84 84 84 84 104 104 104 104 55 55 55 55 55
 150 150 11 11 11 74 74 110 110 110 110 71 71 71 71 84 84 84 84 225
 104 104 104 120 120 120 55 55 55 150 11 11 11 11 74 74 74 110 110 110
 71 71 71 71 225 225 225 225 225 225 189 120 120 120 120 120 96 96 96 11
 11 11 11 74 74 74 74 110 58 58 58 58 58 58 225 225 225 225 225 189
 120 120 120 120 120 96 96 96 11 11 11 11 74 74 74 74 74 58 58 58
 58 58 58 88 88 225 225 189 189 120 120 120 120 120 96 96 96 11 11 11
 11 74 74 74 74 74 155 155 155 155 155 88 88 88 88 88 189 189 189 120
 120 120 120 96 96 153 153 153 153 153 74 7 7 7 7 155 155 155 155 155
 88 88 88 88 88 189 189 189 120 120 120 120 198 198 153 153 153 153 153 153
 7 7 7 7 31 31 155 155 155 88 88 88 88 88 189 189 189 28 120 156
 198 198 187 153 153 153 153 153 248 7 7 7 7 31 31 31 155 155 88 88
 88 88 88 189 229 229 156 156 156 156 187 187 187 153 153 153 248 248 248 7
 7 158 158 31 31 155 17 17 17 88 88 88 189 229 229 229 156 156 156 187
 187 187 187 153 248 248 248 248 248 158 158 158 234 234 234 115 115 115 115 221
 221 229 229 229 229 229 156 187 187 187 187 187 248 248 248 248 248 248 158 158
 234 234 234 115 115 115 115 115 221 229 229 229 229 229 229 156 187 187 187 187
 187 187 248 248 248 248 248 248 158 234 234 234 115 115 115 115 115 221 229 229
 229 229 229 229 187 187 187 187 187 187 72 72 73 73 73 73 73 234 234 234
 234 115 115 115 115 115 22 229 229 229 229 229 229 187 187 187 187 187 72 72
 72 73 73 73 73 73 234 234 234 234 131 131 131 131 140 12 12 229 229 229
 229 229 124 124 124 124 124 72 72 72 73 73 73 73 73 234 234 234 234 131
 131 131 131 140 12 12 12 12 12 12 124 124 124 124 124 124 72 72 72 73
 73 73 73 73 51 131 131 131 131 131 131 131 12 12 12 12 12 12 12 124
 124 124 124 124 124 124 124 72 73 73 73 51 51 51 51 131 131 131 131 131
 131 12 12 12 12 12 12 12 124 124 124 124 124 30 30 30 30 148 148 51
 51 51 51 51 131 131 131 131 131 131 12 12 12 12 12 12 232 232 232 232
 232 30 30 30 30 30 148 148 51 51 51 51 51 51 16 131 131 131 245 245
 12 12 12 12 12 232 232 232 232 232 30 30 30 30 148 148 148 51 51 51
 51 51 51 16 16 16 245 245 245 245 245 62 62 62 232 232 232 232 232 30
 30 30 30 148 148 148 226 51 51 51 51 51 16 231 16 245 245 245 245 62
 62 142 142 232 232 232 232 232 30 30 30 30 226 226 226 226 226 226 226 226
 24 231 231 231 231 245 245 245 142 142 142 38 38 38 232 232 232 30 30 30
 30 226 226 226 226 226 226 226 226 24 24 24 231 231 231 245 142 142 142 142
 38 38 38 38 38 232 150 150 52 52 226 226 226 226 226 226 226 226 24 24
 24 231 231 231 231 142 142 142 38 38 38 38 38 38 38 150 150 52 52 52
 226 226 226 226 226 226 24 24 24 24 231 231 231 231 231 142 142 38 38 38
 38 38 38 150 150 150 52 52 81 81 81 81 81 226 226 24 24 24 24 231
 231 231 231 231 142 142 104 104 91 91 91 55 55 150 150 52 52 81 81 81
 81 81 110 110 24 24 24 24 231 231 231 231 231 231 104 104 104 104 91 55
 55 55 150 150 52 52 81 81 81 81 81 110 110 71 71 71 71 71 231 231
 84 84 84 104 104 104 104 104 55 55 55 55 150 52 52 79 79 81 81 110
 110 110 110 71 71 71 71 71 84 84 84 84 104 104 104 104 55 55 55 55
 55 150 52 11 11 79 79 110 110 110 110 110 71 71 71 71 71 84 84 225
 225 104 104 104 104 120 55 55 55 96 96 11 11 11 11 74 110 110 110 110
 110 58 71 71 71 71 225 225 225 225 104 189 120 120 120 120 96 96 96 96
 11 11 11 11 74 74 74 110 110 58 58 58 58 58 58 225 225 225 225 225
 189 120 120 120 120 96 96 96 96 11 11 11 11 11 74 74 74 110 58 58
 58 58 58 58 88 88 88 88 189 189 120 120 120 120 96 96 96 96 11 11
 11 11 11 74 74 7 7 155 155 155 155 155 88 88 88 88 88 189 189 120
 120 120 120 120 96 96 96 153 153 153 153 153 7 7 7 7 155 155 155 155
 155 88 88 88 88 88 189 189 28 28 28 198 198 198 198 153 153 153 153 153
 153 7 7 7 7 31 31 155 155 155 88 88 88 88 88 189 189 28 28 28
 198 198 198 198 153 153 153 153 153 153 7 7 7 7 31 31 31 155 155 88
 88 88 88 88 88 229 28 28 28 28 198 198 187 153 153 153 153 153 248 7
 7 7 7 31 31 31 155 155 88 88 88 88 88 88 229 229 229 229 28 187
 187 187 187 187 153 153 248 248 248 7 7 158 158 234 234 115 115 115 115 115
 221 221 221 229 229 229 229 187 187 187 187 187 187 187 248 248 248 248 248 248
 158 234 234 234 115 115 115 115 115 221 221 229 229 229 229 229 187 187 187 187
 187 187 187 248 73 73 73 73 248 158 234 234 234 115 115 115 115 115 221 221
 229 229 229 229 229 187 187 187 187 187 187 72 73 73 73 73 73 73 234 234
 234 234 115 115 115 115 115 22 22 229 229 229 229 229 187 187 187 187 187 72
 72 72 73 73 73 73 73 73 234 234 234 131 131 131 115 22 22 22 22 229
 229 229 229 124 124 124 124 72 72 72 72 73 73 73 73 73 127 127 234 131
 131 131 131 131 12 12 12 12 12 12 12 239 239 239 239 239 239 72 72 73
 73 73 73 73 127 127 127 131 131 131 131 131 131 12 12 12 12 12 12 12
 239 239 239 239 239 30 30 30 73 73 73 73 51 51 51 51 131 131 131 131
 131 131 12 12 12 12 12 12 12 239 239 239 30 30 30 30 30 30 148 148
 51 51 51 51 51 51 16 16 131 131 131 12 12 12 12 12 12 12 232 232
 232 30 30 30 30 30 30 148 148 51 51 51 51 51 51 16 16 16 16 245
 245 12 12 12 12 12 232 232 232 232 232 30 30 30 30 148 148 148 148 51
 51 51 51 51 16 16 16 16 245 245 245 245 12 62 38 232 232 232 232 232
 30 30 30 30 148 148 148 148 51 51 51 51 51 16 16 16 245 245 245 245
 245 142 142 38 232 232 232 232 232 30 30 30 30 148 148 148 226 226 226 51
 51 51 16 231 231 231 245 245 245 142 142 142 38 38 38 232 232 232 30 30
 30 45 45 226 226 226 226 226 226 226 69 69 24 231 231 231 231 142 142 142
 142 38 38 38 38 38 232 199 52 52 52 45 226 226 226 226 226 226 226 69
 69 69 231 231 231 231 142 142 142 38 38 38 38 38 38 38 52 52 52 52
 52 226 226 226 226 226 226 24 24 24 24 231 231 231 231 231 142 142 38 38
 38 38 38 38 150 52 52 52 52 52 81 81 81 81 226 226 24 24 24 24
 231 231 231 231 231 142 142 104 104 91 91 91 55 55 52 52 52 52 52 81
 81 81 81 110 110 24 24 24 24 231 231 231 231 231 231 104 104 104 104 91
 55 55 55 52 52 52 52 52 81 81 81 81 110 110 110 71 71 71 71 231
 231 231 85 104 104 104 104 104 104 55 55 55 55 52 52 52 52 79 79 81
 110 110 110 110 71 71 71 71 85 85 85 85 85 104 104 104 104 55 55 55
 55 55 96 96 52 79 79 79 110 110 110 110 110 71 71 71 71 85 85 85
 85 85 104 104 104 104 55 55 55 96 96 96 96 11 11 11 79 110 110 110
 110 110 110 71 71 71 85 85 85 85 85 104 104 120 120 120 96 96 96 96
 96 96 11 11 11 11 110 110 110 110 110 58 58 58 58 85 85 85 85 85
 85 189 120 120 120 96 96 96 96 96 96 11 11 11 11 74 110 110 110 58
 58 58 58 58 34 88 88 88 88 189 189 120 120 120 96 96 96 96 96 96
 11 11 11 11 74 7 7 19 155 155 155 155 34 34 88 88 88 88 189 189
 28 28 28 198 198 96 96 96 96 153 153 153 153 7 7 7 7 155 155 155
 155 34 34 88 88 88 88 88 28 28 28 28 28 198 198 198 96 153 153 153
 153 153 7 7 7 7 31 31 155 155 34 34 88 88 88 88 88 28 28 28
 28 28 198 198 198 153 153 153 153 153 153 7 7 7 7 31 31 31 155 34
 34 88 88 88 88 88 28 28 28 28 28 198 198 198 153 153 153 153 153 153
 7 7 7 7 113 31 31 155 34 34 88 88 88 221 221 229 229 229 28 28
 198 187 187 187 187 153 153 153 248 7 7 7 7 113 31 31 115 115 115 115
 115 221 221 221 229 229 229 229 137 137 187 187 187 187 187 248 248 248 248 248
 248 158 234 234 115 115 115 115 115 115 221 221 221 229 229 229 229 137 137 187
 187 187 187 187 73 73 73 73 73 127 127 127 234 115 115 115 115 115 221 221
 221 221 229 229 229 229 137 137 187 187 187 187 72 73 73 73 73 73 127 127
 127 127 115 115 115 115 115 22 22 22 221 22 229 229 229 137 187 187 187 187
 72 72 73 73 73 73 73 127 127 127 127 115 115 131 115 115 22 22 22 22
 22 229 229 229 137 187 187 187 72 72 72 72 73 73 73 73 127 127 127 127
 131 131 131 131 131 22 22 22 22 12 12 12 239 239 239 239 239 239 239 239
 73 73 73 73 127 127 127 127 127 131 131 131 121 121 121 12 22 12 12 12
 12 239 239 239 239 239 239 239 30 30 73 73 68 51 127 127 127 127 16 131
 16 121 121 121 121 12 12 12 12 239 239 239 239 239 30 30 30 30 30 148
 148 51 51 51 51 51 16 16 16 16 16 121 121 121 12 12 12 12 239 239
 239 239 30 30 30 30 30 30 148 148 51 51 51 51 51 230 16 16 16 16
 16 121 121 12 12 12 12 232 232 232 30 30 30 30 30 30 148 148 148 148
 51 51 51 51 230 16 16 16 16 16 245 245 245 12 62 38 232 232 232 232
 232 30 30 30 30 148 148 148 148 51 51 51 230 230 16 16 16 16 245 245
 245 245 142 142 38 232 232 232 232 199 199 30 30 45 45 148 148 148 51 51
 51 230 230 16 16 16 16 245 245 245 142 142 142 38 38 38 232 199 199 199
 199 45 45 45 236 236 226 226 226 230 230 69 69 69 231 231 231 114 142 142
 142 38 38 38 38 38 199 199 199 199 52 45 45 236 236 226 226 226 226 69
 69 69 69 69 231 231 231 142 142 142 64 38 38 38 38 38 199 52 52 52
 52 52 236 236 226 226 226 226 69 69 69 69 69 231 231 231 231 142 142 64
 64 38 38 38 38 38 52 52 52 52 52 81 81 81 81 226 226 69 69 69
 69 69 231 231 231 231 142 64 64 64 64 91 91 55 55 52 52 52 52 52
 81 81 81 81 110 110 3 3 69 69 69 231 231 231 231 64 64 104 104 104
 61 61 55 55 52 52 52 52 52 79 81 81 110 110 110 3 3 3 71 231
 231 85 85 85 85 104 104 104 104 61 61 55 55 52 52 52 52 79 79 79
 79 110 110 110 3 3 3 71 71 85 85 85 85 85 85 104 104 104 61 61
 55 96 96 96 96 52 79 79 79 110 110 110 110 110 3 3 3 85 85 85
 85 85 85 85 104 104 104 61 96 96 96 96 96 96 11 11 79 79 110 110
 110 110 110 3 3 3 85 85 85 85 85 85 85 104 120 120 120 96 96 96
 96 96 96 11 11 11 110 110 110 110 110 19 19 19 58 85 85 85 85 85