# vtk DataFile Version 2.0
Data set from ImportExport Version 6.5.171.b0b162591
ASCII

DATASET RECTILINEAR_GRID
DIMENSIONS 30 30 30
X_COORDINATES 30 float
-1.250000 1.250000 3.750000 6.250000 8.750000 11.250000 13.750000 16.250000 18.750000 21.250000 23.750000 26.250000 28.750000 31.250000 33.750000 36.250000 38.750000 41.250000 43.750000 46.250000 48.750000 
51.250000 53.750000 56.250000 58.750000 61.250000 63.750000 66.250000 68.750000 71.250000 
Y_COORDINATES 30 float
-1.250000 1.250000 3.750000 6.250000 8.750000 11.250000 13.750000 16.250000 18.750000 21.250000 23.750000 26.250000 28.750000 31.250000 33.750000 36.250000 38.750000 41.250000 43.750000 46.250000 48.750000 
51.250000 53.750000 56.250000 58.750000 61.250000 63.750000 66.250000 68.750000 71.250000 
Z_COORDINATES 30 float
-1.250000 1.250000 3.750000 6.250000 8.750000 11.250000 13.750000 16.250000 18.750000 21.250000 23.750000 26.250000 28.750000 31.250000 33.750000 36.250000 38.750000 41.250000 43.750000 46.250000 48.750000 
51.250000 53.750000 56.250000 58.750000 61.250000 63.750000 66.250000 68.750000 71.250000 
CELL_DATA 24389
SCALARS FeatureIds int 1
LOOKUP_TABLE default
 154 29 29 29 29 29 29 29 37 37 37 165 165 165 165 165 165 127 127 127
 50 50 50 50 179 179 179 154 154 154 29 29 29 29 29 29 29 37 37 37
 165 165 165 165 165 165 127 127 127 50 50 50 50 179 179 179 154 154 154 154
 29 29 29 29 72 72 37 37 165 165 165 165 165 165 165 127 127 127 50 50
 50 50 179 179 179 154 154 154 154 29 29 29 152 152 200 200 37 165 165 165
 165 165 165 165 127 127 127 127 50 50 50 179 179 179 154 154 70 70 70 152
 152 152 152 200 200 200 165 165 165 165 165 165 165 127 127 127 127 38 38 38
 38 70 70 70 70 70 70 48 152 152 152 152 200 200 200 200 165 165 165 165
 165 84 84 120 120 120 38 38 38 38 70 70 70 70 70 70 48 48 48 48
 200 200 200 200 200 200 165 165 84 84 84 84 120 120 120 120 35 38 38 7
 7 7 70 7 7 48 48 48 48 200 200 200 200 200 200 165 84 84 84 84
 84 120 120 120 120 35 35 35 7 7 7 7 7 7 48 48 48 48 200 200
 200 200 200 200 200 84 84 84 84 84 120 120 120 120 35 35 35 7 7 7
 7 7 7 48 48 48 48 200 200 200 200 118 118 118 84 84 84 84 84 120
 120 120 120 159 159 159 159 159 7 7 227 227 227 48 48 135 135 200 200 118
 118 118 118 84 84 84 84 84 120 120 120 120 159 159 159 159 159 159 227 227
 227 227 135 135 135 135 135 135 135 118 118 111 111 111 111 84 84 153 153 153
 120 159 159 159 159 159 159 227 227 227 227 135 135 135 135 135 135 135 135 111
 111 111 111 111 111 111 153 153 153 153 159 159 159 159 159 159 227 227 169 192
 192 135 135 135 135 135 135 135 111 111 111 111 111 111 111 153 153 153 153 159
 159 159 159 159 159 212 169 169 192 192 192 135 135 135 135 135 243 243 243 198
 198 198 198 198 198 198 94 94 94 59 59 59 159 212 212 169 169 192 192 192
 192 192 135 243 243 243 243 243 243 198 198 198 198 198 198 94 94 94 59 59
 59 59 59 212 169 169 192 192 192 192 192 192 243 243 243 243 243 243 243 198
 198 198 198 198 94 94 59 59 59 59 59 59 59 169 169 192 192 192 192 192
 192 243 243 243 243 243 243 243 196 196 196 196 196 94 94 59 59 59 59 59
 59 169 169 169 192 192 192 192 192 87 81 81 81 243 243 243 243 243 69 69
 69 69 69 122 122 59 59 59 59 59 169 169 169 192 192 192 192 87 87 87
 87 81 81 243 243 243 243 69 69 69 69 122 122 122 122 122 122 59 215 169
 169 76 76 76 76 76 87 87 87 87 81 81 243 148 148 69 69 69 69 69
 122 122 122 122 122 122 122 211 211 76 76 76 76 76 76 87 87 87 87 87
 81 8 8 8 69 69 69 69 69 122 122 122 122 122 122 211 211 211 211 217
 76 76 217 217 87 87 87 87 87 87 8 8 8 8 69 69 69 25 122 122
 122 138 138 138 211 211 211 211 217 217 217 217 217 87 87 87 164 164 164 8
 8 8 8 69 69 69 25 138 138 138 138 138 138 211 211 211 211 217 217 217
 217 217 217 87 164 164 164 161 161 161 161 161 161 69 69 138 138 138 138 138
 138 138 211 211 211 211 217 217 217 217 217 217 87 164 164 164 161 161 161 161
 161 161 161 69 138 138 138 138 138 138 138 211 211 211 207 29 29 29 29 29
 29 29 164 164 161 161 161 161 161 161 161 161 161 138 138 138 138 138 138 52
 211 211 211 29 29 29 29 29 29 29 29 29 37 161 161 161 161 161 161 161
 161 161 174 174 174 174 174 52 179 179 154 154 29 29 29 29 29 29 29 29
 29 37 37 184 184 184 184 184 184 184 184 174 174 174 174 174 179 179 179 154
 154 154 29 29 29 29 72 72 37 37 37 37 165 165 165 165 165 165 127 127
 127 127 50 50 50 179 179 179 154 154 154 154 29 72 72 72 72 37 37 37
 37 165 165 165 165 165 165 127 127 127 127 50 50 50 179 179 179 154 154 154
 154 72 72 72 72 72 72 37 37 37 165 165 165 165 165 165 127 127 127 127
 127 50 50 179 179 179 154 154 154 154 72 72 72 72 72 72 37 37 165 165
 165 165 165 165 165 127 127 127 127 127 38 38 38 154 154 154 154 70 70 72
 72 152 152 152 200 200 200 165 165 165 165 165 165 165 127 127 127 127 127 38
 38 38 70 70 70 70 70 70 48 48 152 152 200 200 200 200 200 165 165 165
 165 165 84 84 127 127 127 38 38 38 38 70 70 70 70 70 70 48 48 48
 48 200 200 200 200 200 200 165 165 84 84 84 84 120 120 120 35 38 38 38
 7 7 7 7 7 7 48 48 48 48 200 200 200 200 200 200 165 84 84 84
 84 84 120 120 120 35 35 35 35 7 7 7 7 7 7 48 48 48 48 200
 200 200 200 200 200 200 84 84 84 84 84 120 120 120 120 35 35 35 7 7
 7 7 7 7 48 48 48 48 200 200 200 200 200 200 200 84 84 84 84 84
 120 120 120 120 104 104 159 159 159 7 7 227 227 227 48 48 135 135 135 135
 135 118 118 119 84 84 84 84 84 84 120 120 120 159 159 159 159 159 159 159
 227 227 227 135 135 135 135 135 135 135 135 119 119 119 111 111 84 84 84 120
 120 120 159 159 159 159 159 159 159 227 227 135 135 135 135 135 135 135 135 135
 119 119 119 111 111 111 111 153 153 153 159 159 159 159 159 159 159 159 227 169
 192 135 135 135 135 135 135 135 135 119 119 119 111 111 111 111 111 94 94 94
 159 159 159 159 159 159 159 169 169 192 192 192 135 135 135 135 135 119 119 119
 198 198 198 198 198 198 94 94 94 94 94 159 159 159 159 212 169 169 192 192
 192 147 135 135 135 243 243 243 243 243 198 198 198 198 198 94 94 94 94 94
 59 59 59 59 215 169 169 192 192 192 147 147 147 243 243 243 243 243 243 243
 198 198 198 198 94 94 94 94 59 59 59 59 215 215 169 169 192 192 192 192
 147 147 243 243 243 243 243 243 243 196 196 196 198 94 94 94 94 59 59 59
 59 215 215 169 169 192 192 192 147 147 87 87 81 243 243 243 243 243 196 196
 196 69 69 94 94 122 59 59 59 215 215 215 214 214 76 76 76 76 87 87
 87 87 243 243 243 243 243 243 69 69 69 69 122 122 122 122 122 122 215 215
 215 214 214 76 76 76 76 87 87 87 87 87 243 243 243 243 243 69 69 69
 25 122 122 122 122 122 122 215 215 211 214 214 76 76 76 76 87 87 87 87
 87 243 8 8 8 69 69 69 25 25 25 122 122 122 122 122 211 211 211 211
 214 217 217 217 217 87 87 87 164 164 164 8 8 8 8 69 25 25 25 25
 122 138 138 138 138 211 211 211 211 217 217 217 217 217 164 164 164 164 164 164
 164 161 161 161 18 25 25 25 138 138 138 138 138 138 211 211 211 211 217 217
 217 217 217 217 164 164 164 164 164 161 161 161 161 161 18 25 25 138 138 138
 138 138 211 211 211 211 207 217 217 217 217 217 217 164 164 164 164 164 161 161
 161 161 161 18 25 138 138 138 138 138 138 211 211 211 211 207 207 207 29 29
 29 29 164 164 164 164 161 161 161 161 161 161 161 25 138 138 138 138 138 52
 52 52 52 211 207 207 207 29 29 29 29 29 149 37 184 184 184 184 184 184
 184 184 184 174 174 174 174 174 52 52 52 52 52 207 207 29 29 29 29 29
 29 37 37 37 184 184 184 184 184 184 184 184 174 174 174 174 174 52 52 154
 154 154 154 207 207 72 72 72 72 37 37 37 37 37 184 184 184 184 127 127
 127 127 127 127 174 174 52 52 154 154 154 154 207 72 72 72 72 72 37 37
 37 37 37 165 165 165 165 127 127 127 127 127 127 174 174 179 179 154 154 154
 154 154 72 72 72 72 72 37 37 37 37 165 165 165 165 165 165 127 127 127
 127 127 127 38 179 154 154 154 154 154 154 72 72 72 72 72 72 37 37 37
 165 165 165 165 165 127 127 127 127 127 127 38 38 38 186 154 154 154 70 70
 72 72 72 72 72 72 21 37 165 165 165 165 165 165 165 127 127 127 127 127
 38 38 38 186 70 70 70 70 70 92 92 92 92 92 200 21 21 21 165 165
 165 165 165 84 127 127 127 127 127 38 38 38 186 70 70 70 7 7 92 92
 92 92 92 200 21 21 21 21 165 165 165 84 84 84 84 120 120 35 38 38
 38 186 7 7 7 7 7 92 92 92 92 92 200 21 21 21 21 21 73 84
 84 84 84 84 120 120 35 35 35 35 7 7 7 7 7 7 92 92 92 92
 92 200 200 21 21 21 21 84 84 84 84 84 84 120 120 104 104 104 104 104
 7 7 7 7 7 92 92 92 92 135 135 135 21 21 21 21 84 84 84 84
 84 84 120 120 104 104 104 104 159 159 7 7 227 227 135 135 135 135 135 135
 135 135 135 119 119 119 84 84 84 84 84 120 120 104 104 104 159 159 159 159
 159 227 227 135 135 135 135 135 135 135 135 135 119 119 119 119 111 84 84 84
 120 120 104 159 159 159 159 159 159 159 227 227 135 135 135 135 135 135 135 135
 135 119 119 119 119 111 111 111 84 94 94 159 159 159 159 159 159 159 159 53
 169 135 135 135 135 135 135 135 135 135 119 119 119 111 111 111 111 111 94 94
 94 94 159 159 159 159 159 159 53 169 192 135 135 135 135 135 135 135 119 119
 119 119 198 198 198 198 198 94 94 94 94 94 159 159 159 159 215 215 169 192
 147 147 147 147 135 135 135 243 243 243 243 198 198 198 198 198 94 94 94 94
 94 59 59 215 215 215 215 215 147 147 147 147 147 147 147 243 243 243 243 243
 243 198 198 198 198 94 94 94 94 94 59 215 215 215 215 215 215 147 147 147
 147 147 147 147 243 243 243 243 243 243 196 196 196 196 94 94 94 94 94 215
 215 215 215 215 215 215 214 76 147 147 147 147 87 243 243 243 243 243 243 196
 196 196 196 94 94 94 94 215 215 215 215 215 215 214 214 214 76 76 76 147
 87 87 47 47 243 243 243 243 196 196 196 25 25 25 122 122 122 122 215 215
 215 215 214 214 214 76 76 76 76 87 87 87 47 47 47 243 243 196 196 25
 25 25 25 122 122 122 122 122 215 215 214 214 214 214 76 76 76 76 164 36
 36 47 47 47 47 47 47 25 25 25 25 25 122 122 122 122 122 211 211 214
 214 214 217 217 217 217 164 164 164 36 164 164 47 47 223 223 25 25 25 25
 25 138 138 138 138 138 211 211 211 214 214 217 217 217 217 164 164 164 164 164
 164 164 164 161 161 18 25 25 25 25 138 138 138 138 211 211 211 211 211 217
 217 217 217 217 164 164 164 164 164 164 161 161 161 161 18 18 25 25 25 138
 138 138 138 211 211 211 211 207 207 207 217 217 217 164 164 164 164 164 164 161
 161 161 161 161 18 25 25 138 138 138 138 52 52 211 211 211 207 207 207 207
 29 29 149 164 164 164 164 184 184 184 184 184 184 184 25 25 174 174 174 174
 52 52 52 52 207 207 207 207 207 29 29 29 149 149 37 184 184 184 184 184
 184 184 184 184 174 174 174 174 174 52 52 52 52 207 207 207 207 207 29 29
 29 149 37 37 37 184 184 184 184 184 184 184 184 174 174 174 174 174 52 52
 52 154 154 207 207 207 72 72 72 72 37 37 37 37 37 184 184 184 184 127
 127 127 127 127 174 174 174 52 52 52 154 154 154 207 72 72 72 72 72 37
 37 37 37 37 165 165 165 165 127 127 127 127 127 127 174 174 52 179 154 154
 154 154 72 72 72 72 72 72 37 37 37 37 37 165 165 165 165 127 127 127
 127 127 127 127 38 186 154 154 154 154 154 72 72 72 72 72 72 37 37 37
 37 37 165 165 165 165 127 127 127 127 127 127 127 38 186 186 186 186 154 70
 70 72 72 92 92 92 92 37 37 37 11 11 11 11 11 127 127 127 127 127
 127 38 38 186 186 186 186 186 70 221 92 92 92 92 92 92 21 21 21 11
 11 11 11 11 11 127 127 127 127 127 38 38 186 186 186 186 186 7 7 92
 92 92 92 92 92 21 21 21 21 73 11 11 11 84 84 127 9 9 9 9
 38 186 186 186 186 186 7 92 92 92 92 92 92 92 21 21 21 21 73 73
 73 73 84 84 84 9 9 9 9 104 104 186 186 7 7 7 92 92 92 92
 92 92 92 21 21 21 21 73 73 73 84 84 183 183 183 9 9 104 104 104
 104 7 7 7 7 92 92 92 92 92 135 135 135 21 21 21 73 73 84 84
 183 183 183 183 9 104 104 104 104 104 159 7 7 227 92 92 92 92 135 135
 135 135 135 135 119 119 119 84 84 183 183 183 183 120 104 104 104 104 159 159
 159 159 227 135 135 135 135 135 135 135 135 135 135 119 119 119 119 119 183 183
 183 183 120 104 104 104 159 159 159 159 159 53 135 135 135 135 135 135 135 135
 135 135 119 119 119 119 119 111 111 183 94 94 94 159 159 159 159 159 159 159
 53 53 135 135 135 135 135 135 135 135 135 119 119 119 119 119 111 111 111 94
 94 94 94 115 159 159 159 53 53 53 53 147 147 147 135 135 135 135 135 119
 119 119 119 119 198 198 198 198 94 94 94 94 115 115 53 53 53 53 215 215
 147 147 147 147 147 147 135 135 119 119 119 119 198 198 198 198 198 94 94 94
 94 115 115 215 53 53 53 215 215 147 147 147 147 147 147 147 243 243 243 243
 243 243 198 198 198 198 94 94 94 94 115 115 215 215 215 215 215 215 147 147
 147 147 147 147 147 243 243 243 243 243 243 243 196 196 196 94 94 94 94 115
 215 215 215 215 215 215 215 147 147 147 147 147 147 147 47 243 243 243 243 243
 196 196 196 196 25 206 206 206 206 215 215 215 215 215 214 214 214 147 147 147
 147 147 47 47 47 47 47 243 243 196 196 196 25 25 25 25 122 122 122 215
 215 215 215 214 214 214 214 76 76 147 164 87 47 47 47 47 47 47 196 196
 25 25 25 25 25 122 122 122 122 215 215 214 214 214 214 214 76 76 164 164
 36 36 47 47 47 47 47 47 25 25 25 25 25 25 122 122 122 122 211 211
 214 214 214 214 214 217 217 164 164 164 36 164 47 47 223 223 223 18 25 25
 25 25 25 138 138 138 138 211 211 214 214 214 214 217 217 217 164 164 164 36
 164 164 223 223 223 223 18 18 25 25 25 138 138 138 138 211 211 211 211 214
 217 217 217 217 217 164 164 164 36 164 164 223 223 223 223 18 18 18 25 25
 138 138 138 138 211 211 211 211 207 207 207 217 217 217 164 164 36 36 36 164
 184 184 184 184 18 18 18 25 25 138 174 174 52 52 52 52 211 207 207 207
 207 207 149 149 149 149 36 36 184 184 184 184 184 184 18 18 25 174 174 174
 174 52 52 52 52 207 207 207 207 207 207 72 149 149 149 149 184 184 184 184
 184 184 184 184 18 174 174 174 174 174 52 52 52 52 207 207 207 207 207 207
 72 149 149 37 37 37 184 184 184 184 184 184 184 184 174 174 174 174 174 52
 52 52 52 207 207 207 207 72 72 72 72 149 37 37 37 37 184 184 184 184
 209 127 127 127 127 174 174 174 52 52 52 154 154 207 207 207 72 72 72 72
 37 37 37 37 37 184 184 184 209 127 127 127 127 127 127 174 174 52 52 154
 154 154 154 72 72 72 72 72 72 37 37 37 37 37 11 165 165 11 127 127
 127 127 127 127 127 186 186 186 154 154 154 221 221 72 72 72 72 72 37 37
 37 37 11 11 11 11 11 127 127 127 127 127 127 127 186 186 186 186 186 186
 221 221 221 92 92 92 92 92 189 189 189 11 11 11 11 11 11 127 127 127
 127 127 127 38 186 186 186 186 186 221 221 92 92 92 92 92 92 21 21 189
 11 11 11 11 11 11 127 127 127 9 9 9 9 186 186 186 186 186 221 221
 92 92 92 92 92 92 21 21 21 11 11 11 11 11 11 183 127 9 9 9
 9 9 186 186 186 186 186 221 92 92 92 92 92 92 92 21 21 21 73 73
 73 73 73 183 183 183 9 9 9 9 9 186 186 186 186 186 7 92 92 92
 92 92 92 92 21 21 21 73 73 73 73 183 183 183 183 183 9 9 9 104
 104 104 186 186 186 102 92 92 92 92 92 92 135 135 21 21 73 73 73 73
 183 183 183 183 183 9 9 104 104 104 104 159 186 102 102 92 92 92 203 203
 135 135 135 135 135 73 73 73 73 183 183 183 183 183 9 104 104 104 104 159
 159 159 102 102 203 203 203 203 203 135 135 135 135 135 119 119 119 119 183 183
 183 183 183 183 104 104 104 159 159 159 159 159 53 203 203 203 203 203 135 135
 135 135 135 119 119 119 119 119 111 183 183 183 94 94 115 115 159 159 159 159
 53 53 53 216 216 216 216 135 135 135 135 135 119 119 119 119 119 111 44 44
 94 94 94 115 115 115 53 53 53 53 53 53 147 147 216 216 135 135 135 135
 119 119 119 119 119 119 198 44 44 94 94 94 115 115 115 53 53 53 53 53
 53 147 147 147 147 147 147 135 135 119 119 119 119 119 198 198 198 44 94 94
 94 115 115 115 53 53 53 53 53 53 147 147 147 147 147 147 147 147 243 243
 243 243 243 198 198 44 44 94 94 94 115 115 115 215 215 53 53 215 215 147
 147 147 147 147 147 147 147 47 243 243 243 243 243 196 196 44 206 206 206 206
 115 115 215 215 215 215 215 215 147 147 147 147 147 147 147 47 47 47 47 243
 243 196 196 196 182 206 206 206 206 206 215 215 215 215 215 214 214 214 147 147
 147 147 147 147 47 47 47 47 47 47 196 196 25 25 25 25 206 109 109 109
 215 215 215 215 214 214 214 214 147 147 147 147 47 47 47 47 47 47 47 47
 18 25 25 25 25 109 109 109 109 109 215 215 214 214 214 214 214 76 147 164
 164 164 47 47 47 47 47 47 47 18 25 25 25 25 25 109 109 109 109 109
 214 214 214 214 214 214 217 217 164 164 164 164 47 47 47 223 223 223 18 18
 25 25 25 25 109 109 109 109 211 211 214 214 214 214 214 217 164 164 164 164
 164 164 47 223 223 223 223 18 18 18 25 25 25 109 109 109 109 211 211 211
 57 57 57 57 217 164 164 164 164 36 164 164 223 223 223 223 18 18 18 25
 25 138 138 138 138 52 211 211 57 57 57 57 57 57 149 149 164 36 36 36
 164 184 184 223 223 18 18 18 25 25 174 174 174 52 52 52 52 57 207 207
 207 57 57 149 149 149 149 149 36 184 184 184 184 184 18 18 18 25 174 174
 174 174 174 52 52 52 207 207 207 207 207 207 149 149 149 149 149 149 184 184
 184 184 184 184 18 18 174 174 174 174 174 174 52 52 52 207 207 207 207 207
 207 149 149 149 149 37 37 184 184 184 184 184 184 184 18 174 174 174 174 174
 174 52 52 52 207 207 207 207 46 46 46 46 226 226 37 37 37 184 209 209
 209 209 209 127 127 127 174 174 174 52 52 52 154 154 207 207 46 46 46 46
 46 226 226 37 37 37 184 209 209 209 209 127 127 127 127 127 174 174 52 93
 93 154 154 221 221 46 46 46 46 46 226 226 37 37 11 11 209 209 209 209
 127 127 127 127 127 127 174 186 186 186 186 186 221 221 221 46 46 46 46 189
 189 189 189 11 11 11 11 11 209 127 127 127 127 127 127 186 186 186 186 186
 186 221 221 221 92 92 92 92 189 189 189 189 11 11 11 11 11 11 127 127
 127 127 127 9 186 186 186 186 186 186 221 221 221 92 92 92 92 92 189 189
 189 11 11 11 11 11 11 75 75 75 9 9 9 9 186 186 186 186 186 221
 221 221 92 92 92 92 92 189 189 189 11 11 11 11 11 11 75 75 75 9
 9 9 9 186 186 186 186 186 221 221 92 92 92 92 92 92 92 21 21 73
 73 73 73 73 183 183 75 75 9 9 9 9 186 186 186 186 186 102 221 92
 92 92 92 92 92 92 21 21 73 73 73 73 183 183 183 183 75 9 9 9
 9 104 104 186 102 102 102 92 92 92 92 92 92 92 135 21 21 73 73 73
 73 183 183 183 183 183 9 9 9 104 104 104 102 102 102 102 92 92 92 203
 203 203 135 135 135 135 73 73 73 73 183 183 183 183 183 9 104 104 104 104
 102 102 102 102 102 203 203 203 203 203 203 135 135 135 135 119 119 119 119 183
 183 183 183 183 183 104 104 104 159 159 102 102 102 53 216 216 216 203 203 203
 135 135 135 135 119 119 119 119 119 183 183 44 44 44 115 115 115 115 159 159
 53 53 53 53 216 216 216 216 216 135 135 135 135 119 119 119 119 119 44 44
 44 44 44 115 115 115 115 115 53 53 53 53 53 216 216 216 216 216 216 135
 135 119 119 119 119 119 119 44 44 44 44 44 94 115 115 115 53 53 53 53
 53 53 147 147 147 147 147 147 147 147 121 119 119 240 240 240 44 44 44 44
 44 94 115 115 115 53 53 53 53 53 53 147 147 147 147 147 147 147 147 121
 121 243 240 240 198 44 44 44 44 206 206 115 115 115 115 53 53 53 53 53
 147 147 147 147 147 147 147 121 121 121 121 121 243 243 44 182 182 182 206 206
 206 115 115 215 215 215 53 215 147 147 147 147 147 147 147 147 121 121 121 121
 121 243 196 182 182 182 182 206 206 206 206 115 215 215 215 215 214 214 147 147
 147 147 147 147 147 121 121 47 47 47 47 47 47 182 182 25 206 206 109 109
 109 109 215 215 215 214 214 214 214 147 147 147 147 47 47 47 47 47 47 47
 47 18 25 25 25 25 109 109 109 109 109 109 215 214 214 214 214 214 147 147
 147 164 164 47 47 47 47 47 47 47 18 18 25 25 25 109 109 109 109 109
 109 109 214 214 214 214 214 167 167 164 164 164 164 47 47 47 223 223 223 18
 18 18 25 25 109 109 109 109 109 109 109 214 105 105 105 105 167 164 164 164
 164 164 164 47 223 223 223 223 18 18 18 25 25 109 109 109 109 109 109 57
 57 57 57 57 57 57 164 164 164 164 164 164 223 223 223 223 223 18 18 18
 25 25 109 109 109 109 109 109 57 57 57 57 57 57 57 149 149 149 36 36
 36 223 223 223 223 223 18 18 18 18 174 174 174 174 52 52 52 57 57 57
 57 57 57 57 149 149 149 149 15 15 184 184 184 184 184 18 18 18 18 174
 174 174 174 174 52 52 52 207 207 207 207 207 149 149 149 149 149 15 15 184
 184 184 184 184 184 18 18 174 174 174 174 174 174 52 52 52 207 207 207 207
 207 46 46 149 149 149 149 15 184 184 184 184 184 209 209 209 174 174 174 174
 174 174 52 52 52 207 43 43 46 46 46 46 46 226 226 226 226 226 209 209
 209 209 209 209 83 83 83 174 174 174 93 93 93 93 43 43 43 46 46 46
 46 46 226 226 226 37 37 209 209 209 209 209 209 83 83 127 103 174 93 93
 93 93 93 43 221 221 46 46 46 46 46 226 226 226 226 11 209 209 209 209
 209 209 83 127 127 127 93 93 93 93 186 93 43 221 221 221 46 46 46 46
 226 189 189 189 11 11 11 11 209 209 209 127 127 127 127 127 193 193 186 186
 186 221 221 221 221 221 92 92 92 189 189 189 189 189 11 11 11 11 209 127
 127 75 26 26 9 193 186 186 186 186 221 221 221 221 92 92 92 92 189 189
 189 189 189 11 11 11 11 11 75 75 75 26 26 9 9 186 186 186 186 221
 221 221 221 92 92 92 92 92 189 189 189 189 11 11 11 11 11 75 75 75
 75 9 9 9 186 186 186 186 221 221 221 221 92 92 92 92 92 92 189 189
 73 73 73 73 73 183 75 75 75 75 9 9 9 186 186 186 102 102 102 221
 92 92 92 92 92 92 92 21 21 73 73 73 73 183 183 183 75 75 75 9
 9 9 104 102 102 102 102 102 102 92 92 92 92 92 92 92 21 21 73 73
 73 73 183 183 183 183 75 75 9 9 9 104 102 102 102 102 102 102 92 92
 203 203 203 135 135 135 135 73 73 143 143 183 183 183 183 183 75 9 104 104
 104 102 102 102 102 102 102 216 216 203 203 203 135 135 135 135 4 143 143 143
 143 183 183 183 183 44 44 104 115 115 102 102 102 102 17 17 216 216 216 216
 216 216 135 135 4 4 4 4 143 143 183 44 44 44 44 44 115 115 115 115
 102 102 53 53 53 216 216 216 216 216 216 216 216 4 4 4 4 4 4 44
 44 44 44 44 44 115 115 115 115 53 53 53 53 53 216 216 216 216 216 216
 216 216 4 4 4 4 4 4 44 44 44 44 44 44 115 115 115 115 53 53
 53 53 53 175 147 147 147 147 147 147 147 240 240 240 240 240 240 44 44 44
 44 44 44 115 115 115 115 53 53 53 53 53 175 147 147 147 147 147 147 121
 121 121 240 240 240 240 44 44 44 44 44 206 115 115 115 115 53 53 53 53
 53 175 147 147 147 147 147 147 121 121 121 121 121 240 240 44 182 182 182 182
 206 206 115 115 115 53 53 53 53 175 175 147 147 147 147 147 147 121 121 121
 121 121 121 121 182 182 182 182 182 206 206 115 115 215 215 215 215 214 175 175
 147 147 147 147 147 121 121 121 121 121 121 121 121 182 182 182 182 182 206 109
 109 109 109 215 215 215 214 214 214 167 167 167 147 147 121 121 208 208 121 47
 47 47 18 18 25 25 25 109 109 109 109 109 109 215 214 105 105 105 167 167
 167 167 164 208 208 208 208 47 47 223 223 18 18 18 25 25 109 109 109 109
 109 109 109 105 105 105 105 105 167 167 167 164 164 208 208 208 47 223 223 223
 18 18 18 25 25 109 109 109 109 109 109 105 105 105 105 105 105 167 167 167
 164 164 164 208 208 223 223 223 223 18 18 18 25 25 109 109 109 109 110 110
 105 105 105 105 105 105 105 149 149 164 164 164 208 223 223 223 223 223 18 18
 18 18 25 109 109 109 109 110 110 105 105 57 57 57 57 57 149 149 149 149
 15 15 223 223 223 223 223 18 18 18 18 78 78 78 78 78 78 52 57 57
 57 57 57 57 57 149 149 149 15 15 15 15 184 184 184 184 18 18 18 18
 174 174 78 78 78 78 52 52 57 207 207 207 57 149 149 149 149 15 15 15
 15 184 184 184 209 209 209 18 174 174 174 78 78 78 78 52 52 207 207 207
 207 46 46 46 46 149 15 15 15 15 184 184 209 209 209 209 209 174 174 174
 174 174 78 78 52 52 207 43 43 43 46 46 46 46 226 226 226 226 160 209
 209 209 209 209 83 83 83 83 103 93 93 93 93 93 93 43 43 43 43 46
 46 46 226 226 226 226 226 160 209 209 209 209 209 83 83 83 83 103 93 93
 93 93 93 93 43 43 43 43 46 46 46 46 226 226 226 226 160 209 209 209
 209 209 83 83 83 39 39 93 93 93 93 93 93 43 221 221 221 46 46 46
 46 226 189 189 189 189 11 11 209 209 209 83 83 83 39 39 39 193 193 193
 93 93 221 221 221 221 221 92 92 92 189 189 189 189 189 11 11 11 11 209
 83 75 75 26 26 26 193 193 193 193 193 221 221 221 221 221 92 92 92 189
 189 189 189 189 11 11 11 11 11 75 75 75 26 26 26 193 193 193 193 193
 221 221 221 221 221 92 92 92 189 189 189 189 189 11 11 11 11 75 75 75
 75 26 26 26 193 193 193 193 193 221 221 221 221 92 92 92 92 92 189 189
 189 189 73 73 73 73 75 75 75 75 75 26 26 193 193 193 193 102 102 102
 221 92 92 92 92 92 92 92 189 189 73 73 73 73 183 183 75 75 75 75
 75 9 9 193 102 102 102 102 102 102 92 92 92 92 92 92 92 189 189 73
 73 73 73 183 183 183 75 75 75 75 9 9 102 102 102 102 102 102 102 92
 92 203 203 203 135 135 135 135 143 143 143 143 143 183 183 183 75 75 75 199
 199 102 102 102 102 102 17 17 216 216 216 216 216 216 135 135 143 143 143 143
 143 143 143 65 65 65 65 199 199 199 102 102 102 17 17 17 17 216 216 216
 216 216 216 216 216 4 4 4 4 143 143 65 65 65 65 44 44 199 199 199
 17 17 17 17 180 216 216 216 216 216 216 216 216 216 4 4 4 4 4 143
 65 65 44 44 44 44 199 199 199 115 180 180 180 180 180 216 216 216 216 216
 216 216 216 67 67 4 4 4 4 65 44 44 44 44 44 115 115 115 115 180
 180 180 180 180 175 175 175 216 216 216 216 216 240 240 240 240 240 240 44 44
 44 44 44 44 115 115 115 115 180 180 180 180 175 175 175 175 175 147 147 147
 121 121 121 240 240 240 67 44 44 44 44 44 44 115 115 115 115 180 180 180
 180 175 175 175 175 175 147 147 147 121 121 121 121 121 67 67 44 182 182 182
 182 182 206 115 115 115 180 180 180 180 175 175 175 175 175 147 147 121 121 121
 121 121 121 121 121 182 182 182 182 182 182 206 115 115 115 180 180 180 175 175
 175 175 175 175 175 147 121 121 121 121 121 121 121 121 182 182 182 182 182 182
 109 109 109 109 215 180 180 105 167 167 167 167 167 167 167 121 121 121 208 121
 121 121 121 177 182 182 182 182 109 109 109 109 110 110 110 105 105 105 105 167
 167 167 167 167 121 208 208 208 208 208 223 223 177 177 177 25 25 109 109 109
 110 110 110 110 105 105 105 105 167 167 167 167 167 208 208 208 208 208 223 223
 223 177 177 177 177 177 109 109 110 110 110 110 110 105 105 105 105 105 167 167
 167 167 164 208 208 208 208 223 223 223 177 177 177 177 177 109 109 110 110 110
 110 110 105 105 105 105 105 167 167 167 166 166 208 208 208 223 223 223 223 177
 177 177 177 177 109 78 110 110 110 110 105 105 105 105 105 105 167 149 149 166
 15 15 15 15 223 223 223 223 177 177 177 177 78 78 78 78 78 78 78 57
 57 57 57 57 57 57 149 149 149 15 15 15 15 15 184 184 209 177 177 177
 78 78 78 78 78 78 78 78 78 57 43 43 43 57 46 149 149 15 15 15
 15 15 15 209 209 209 209 209 83 83 78 78 78 78 78 78 78 93 43 43
 43 43 43 46 46 46 226 15 15 15 15 15 209 209 209 209 209 83 83 78
 78 78 78 78 93 93 93 43 43 43 43 43 46 46 226 226 226 226 160 160
 160 209 209 209 83 83 83 83 83 103 93 93 93 93 93 93 43 43 43 43
 43 46 46 226 226 226 226 160 160 160 209 209 209 83 83 83 83 83 103 103
 93 93 93 93 93 43 43 43 43 43 46 46 226 226 226 226 160 160 160 209
 209 209 83 83 83 83 39 39 39 93 93 93 93 93 43 221 43 43 43 46
 46 226 226 189 189 189 189 160 209 209 209 83 83 83 39 39 39 39 193 193
 193 93 93 221 221 221 221 221 92 92 92 189 189 189 189 189 11 11 11 209
 83 83 75 75 39 39 39 193 193 193 193 193 221 221 221 221 221 92 92 92
 189 189 189 189 189 11 11 11 11 75 75 75 75 26 26 26 193 193 193 193
 193 221 221 221 221 221 92 92 92 189 189 189 189 189 11 11 11 11 75 75
 75 75 26 26 26 193 193 193 193 193 221 221 221 221 92 92 92 92 92 189
 189 189 189 73 73 73 73 75 75 75 75 75 26 26 193 193 193 193 102 102
 102 221 221 92 92 92 92 92 189 189 189 189 73 73 73 143 183 75 75 75
 75 75 26 193 193 102 102 102 102 102 102 92 92 92 92 92 92 92 66 66
 66 143 143 143 143 183 75 75 75 75 75 26 193 102 102 102 102 102 17 17
 216 216 216 216 216 95 95 95 66 143 143 143 143 143 65 65 65 75 75 75
 199 199 102 102 102 17 17 17 17 216 216 216 216 216 95 95 95 143 143 143
 143 143 143 65 65 65 65 65 199 199 199 199 17 17 17 17 17 17 216 216
 216 216 216 216 95 95 4 4 4 143 143 143 65 65 65 65 65 199 199 199
 199 17 17 17 17 180 180 216 216 216 216 216 216 95 95 4 4 4 4 4
 143 65 65 65 44 44 44 199 199 199 199 180 180 180 180 180 216 216 216 216
 216 216 95 95 67 67 67 67 67 67 65 65 44 44 44 44 199 199 199 180
 180 180 180 180 180 175 175 175 175 216 216 216 67 67 67 67 67 67 67 65
 44 44 44 44 44 44 199 199 180 180 180 180 180 175 175 175 175 175 175 175
 175 121 121 67 67 67 67 67 44 44 44 44 44 44 44 115 115 180 180 180
 180 180 175 175 175 175 175 175 175 175 121 121 121 121 67 67 67 44 182 182
 182 182 182 206 115 115 180 180 180 180 180 175 175 175 175 175 175 175 121 121
 121 121 121 121 121 67 182 182 182 182 182 182 182 137 137 180 180 180 180 180
 175 175 175 175 175 175 175 121 121 121 121 121 121 121 121 20 182 182 182 182
 182 182 137 110 110 137 180 180 105 167 167 167 167 167 167 167 121 121 121 208
 121 121 121 121 177 177 182 182 182 182 109 110 110 110 110 110 105 105 105 167
 167 167 167 167 167 208 208 208 208 208 208 208 177 177 177 177 177 177 110 110
 110 110 110 110 110 105 105 105 105 167 167 167 167 167 208 208 208 208 208 208
 223 177 177 177 177 177 177 110 110 110 110 110 110 110 105 105 105 105 167 167
 167 167 166 166 208 208 208 208 208 223 177 177 177 177 177 177 110 110 110 110
 110 110 110 105 105 105 105 105 167 167 166 166 166 166 208 208 208 208 223 177
 177 177 177 177 177 110 110 110 110 110 110 110 105 105 105 105 105 167 166 166
 166 166 15 15 208 208 208 223 177 177 177 177 177 177 78 78 78 78 78 110
 110 105 105 105 105 105 167 166 166 166 15 15 15 15 15 15 209 177 177 177
 177 177 78 78 78 78 78 78 78 78 105 43 43 43 43 46 46 149 15 15
 15 15 15 15 209 209 209 83 83 83 83 78 78 78 78 78 78 78 93 43
 43 43 43 43 46 46 226 226 15 15 15 15 160 209 209 209 83 83 83 83
 83 78 78 93 93 93 93 93 43 43 43 43 43 46 46 226 226 226 160 160
 160 160 160 209 83 83 83 83 83 103 103 103 93 93 93 93 93 61 43 43
 43 43 46 46 226 226 226 160 160 160 160 160 209 83 83 83 83 83 103 103
 103 93 93 93 93 93 43 43 43 43 43 46 46 226 226 226 160 160 160 160
 160 209 83 83 83 83 83 39 39 39 93 93 93 93 93 43 43 43 43 43
 43 46 226 226 189 160 160 160 160 160 209 83 83 83 83 39 39 39 39 193
 193 193 93 93 43 221 221 221 221 92 92 189 189 189 189 131 131 131 131 131
 83 83 83 83 39 39 39 39 193 193 193 193 193 193 221 221 221 221 92 92
 92 189 189 189 189 131 131 131 131 11 75 75 75 75 26 39 193 193 193 193
 193 193 193 221 221 221 221 92 92 92 189 189 189 189 131 131 131 131 11 75
 75 75 75 75 26 26 193 193 193 193 193 193 221 221 221 92 218 218 218 189
 189 189 66 66 66 66 66 168 75 75 75 75 75 26 26 193 193 193 193 193
 193 102 221 221 218 218 218 218 218 189 66 66 66 66 66 168 168 168 75 75
 75 75 75 26 193 193 193 102 102 102 17 17 218 218 218 218 218 218 95 66
 66 66 66 168 168 168 168 168 75 75 75 75 26 193 193 17 17 17 17 17
 17 218 218 218 218 218 95 95 95 66 66 143 143 143 143 168 65 65 65 75