# vtk DataFile Version 2.0
Data set from ImportExport Version 6.5.171.b0b162591
ASCII

DATASET RECTILINEAR_GRID
DIMENSIONS 30 30 30
X_COORDINATES 30 float
-1.250000 1.250000 3.750000 6.250000 8.750000 11.250000 13.750000 16.250000 18.750000 21.250000 23.750000 26.250000 28.750000 31.250000 33.750000 36.250000 38.750000 41.250000 43.750000 46.250000 48.750000 
51.250000 53.750000 56.250000 58.750000 61.250000 63.750000 66.250000 68.750000 71.250000 
Y_COORDINATES 30 float
-1.250000 1.250000 3.750000 6.250000 8.750000 11.250000 13.750000 16.250000 18.750000 21.250000 23.750000 26.250000 28.750000 31.250000 33.750000 36.250000 38.750000 41.250000 43.750000 46.250000 48.750000 
51.250000 53.750000 56.250000 58.750000 61.250000 63.750000 66.250000 68.750000 71.250000 
Z_COORDINATES 30 float
-1.250000 1.250000 3.750000 6.250000 8.750000 11.250000 13.750000 16.250000 18.750000 21.250000 23.750000 26.250000 28.750000 31.250000 33.750000 36.250000 38.750000 41.250000 43.750000 46.250000 48.750000 
51.250000 53.750000 56.250000 58.750000 61.250000 63.750000 66.250000 68.750000 71.250000 
CELL_DATA 24389
SCALARS FeatureIds int 1
LOOKUP_TABLE default
 138 138 138 138 138 138 138 16 16 16 16 77 77 77 77 27 27 27 27 105
 105 105 105 106 106 106 106 106 106 138 138 138 138 138 138 138 16 16 16 16
 16 77 27 27 27 27 27 27 105 105 105 105 203 106 106 106 106 106 138 138
 138 138 138 138 138 16 16 16 16 16 27 27 27 27 27 27 27 105 105 105
 105 203 203 106 106 106 106 138 138 138 138 138 138 138 16 16 16 16 16 27
 27 27 27 27 27 27 105 105 105 105 203 203 203 106 106 106 138 138 138 138
 241 241 241 241 166 166 166 27 27 27 27 27 27 27 27 105 105 105 105 203
 203 203 203 106 106 195 195 14 14 14 241 241 241 166 166 166 166 27 27 27
 27 27 27 27 105 105 105 105 203 203 203 203 156 195 195 195 195 14 14 14
 14 241 166 166 166 166 27 27 27 27 27 27 27 105 105 105 105 65 65 169
 169 156 195 195 195 195 14 14 14 14 14 166 166 146 146 146 27 27 188 27
 27 27 65 65 65 65 65 65 169 169 169 195 195 195 195 14 14 14 14 14
 146 146 146 146 146 146 188 188 188 188 188 65 65 65 65 65 169 169 169 169
 195 195 195 14 14 14 14 14 14 146 146 146 146 146 146 188 188 188 188 184
 184 65 65 65 65 169 169 169 169 169 56 195 67 67 67 67 14 87 207 146
 146 146 146 146 188 188 188 184 184 184 184 65 65 65 65 169 169 169 169 56
 67 67 67 67 67 67 207 207 207 207 146 146 146 188 188 184 184 184 184 184
 184 65 65 65 169 169 169 169 71 67 67 67 67 67 67 207 207 207 207 207
 207 188 188 184 184 184 184 184 184 184 72 19 19 19 19 19 19 71 71 71
 67 67 67 207 207 207 207 207 207 207 251 251 251 251 184 184 184 184 72 72
 19 19 19 19 19 19 71 71 71 71 67 67 207 207 207 207 207 207 207 251
 251 251 251 251 184 184 184 72 19 19 19 19 19 19 71 71 71 71 71 71
 71 207 207 207 207 207 207 251 251 251 251 251 251 251 184 184 72 19 19 19
 19 19 19 71 71 71 71 71 71 191 191 191 192 207 192 192 251 251 251 251
 251 251 251 184 184 19 19 19 19 19 19 19 71 71 71 71 71 191 191 191
 191 191 192 192 192 251 251 251 251 251 251 251 221 221 221 221 19 19 19 19
 19 71 71 71 71 191 191 191 191 191 191 191 185 185 234 251 251 251 251 251
 251 221 221 221 221 221 222 222 222 222 71 71 172 71 191 191 191 191 191 185
 185 185 185 234 234 251 251 251 80 80 80 221 221 221 221 222 222 222 222 210
 210 172 13 13 13 13 191 185 185 185 185 234 234 234 234 251 80 80 80 80
 221 221 221 221 222 222 210 210 210 210 210 13 13 13 13 13 185 185 185 185
 234 234 234 234 53 80 80 80 80 80 221 221 221 210 210 210 210 210 210 210
 13 13 13 13 13 185 185 185 185 234 234 234 234 53 53 80 80 80 80 80
 221 210 210 210 210 210 210 210 210 13 13 13 13 13 185 185 185 185 234 234
 234 53 53 53 53 80 80 80 80 210 210 210 210 210 210 210 210 210 3 3
 3 3 3 3 185 185 185 234 234 234 53 53 53 53 23 23 23 23 129 129
 129 129 210 210 210 210 210 3 3 3 3 3 3 3 185 185 77 77 77 53
 53 53 53 23 23 23 23 129 129 129 129 129 210 210 220 220 138 3 3 3
 3 3 3 16 77 77 77 77 77 63 63 53 23 23 23 84 84 129 129 129
 129 129 210 220 220 138 138 138 3 3 3 16 16 77 77 77 77 77 77 77
 23 23 23 23 84 84 129 129 129 129 129 220 220 220 138 138 138 138 138 16
 16 16 16 77 77 77 77 77 77 77 23 23 229 229 229 106 106 106 106 106
 220 220 220 138 138 138 138 138 16 16 16 16 77 77 77 77 27 27 27 229
 229 229 229 229 106 106 106 106 106 106 220 138 138 138 138 138 138 16 16 16
 16 77 77 27 27 27 27 27 27 105 105 105 105 106 106 106 106 106 106 138
 138 138 138 138 138 138 16 16 16 16 16 27 27 27 27 27 27 27 105 105
 105 105 105 106 106 106 106 106 138 138 138 138 138 138 138 166 166 166 166 166
 27 27 27 27 27 27 27 105 105 105 105 105 105 106 106 106 106 195 138 138
 138 138 138 166 166 166 166 166 166 27 27 27 27 27 27 27 105 105 105 105
 105 105 203 106 106 195 195 195 195 14 14 14 14 166 166 166 166 166 27 27
 27 27 27 27 27 105 105 105 105 105 105 203 156 156 195 195 195 195 14 14
 14 14 166 166 166 166 166 166 27 27 27 27 27 27 105 105 105 105 105 169
 169 156 156 195 195 195 195 14 14 14 14 166 166 166 166 166 166 188 188 188
 188 188 188 105 105 65 65 65 169 169 169 156 195 195 195 195 14 14 14 14
 14 166 166 166 146 146 188 188 188 188 188 188 184 65 65 65 65 169 169 169
 169 195 195 195 195 14 14 14 14 87 87 146 146 146 146 188 188 188 188 188
 184 184 184 65 65 169 169 169 169 169 195 56 56 56 67 67 87 87 87 87
 87 146 146 146 188 188 188 188 184 184 184 184 184 65 169 169 169 169 169 169
 56 56 56 67 67 87 87 87 87 87 207 146 146 188 188 188 184 184 184 184
 184 184 65 65 169 169 169 169 56 56 56 56 67 67 87 87 87 87 87 87
 207 207 188 188 188 184 184 184 184 184 184 184 19 19 19 19 19 56 71 71
 71 71 67 87 87 87 87 87 87 207 207 251 251 251 251 184 184 184 184 184
 184 19 19 19 19 19 71 71 71 71 71 71 87 87 87 87 87 207 207 251
 251 251 251 251 251 184 184 184 184 19 19 19 19 19 19 71 71 71 71 71
 71 87 87 87 192 192 192 192 251 251 251 251 251 251 251 184 184 184 19 19
 19 19 19 19 71 71 71 71 71 71 191 191 191 192 192 192 192 251 251 251
 251 251 251 251 184 184 221 19 19 19 19 19 19 71 71 71 71 71 191 191
 191 191 191 192 192 192 251 251 251 251 251 251 251 221 221 221 221 19 19 19
 19 19 71 71 71 71 191 191 191 191 191 191 192 185 185 234 251 251 251 251
 251 251 221 221 221 221 221 19 222 240 240 240 172 172 76 76 191 191 191 191
 191 185 185 185 234 234 251 251 251 80 80 80 221 221 221 221 222 222 222 240
 240 172 172 76 76 191 191 191 191 185 185 185 234 234 234 234 186 80 80 80
 80 80 221 221 221 222 222 210 210 210 172 172 76 76 76 13 191 185 185 185
 185 234 234 234 234 186 80 80 80 80 80 221 221 221 210 210 210 210 210 210
 172 76 76 76 13 185 185 185 185 185 234 234 234 234 53 53 80 80 80 80
 80 221 210 210 210 210 210 210 210 210 76 76 76 13 185 185 185 185 185 234
 234 234 96 96 53 23 80 80 80 80 23 129 129 129 210 210 210 210 210 220
 3 3 209 209 185 185 185 185 234 234 96 96 96 96 23 23 23 23 23 23
 129 129 129 129 210 210 220 220 220 3 209 209 209 209 185 185 185 77 77 96
 96 96 96 23 23 23 23 23 84 129 129 129 129 129 210 220 220 220 220 209
 209 209 209 209 16 77 77 77 77 63 63 63 23 23 23 23 84 84 129 129
 129 129 129 129 220 220 220 138 138 138 209 209 16 16 77 77 77 77 77 63
 63 23 23 23 23 84 84 129 129 129 129 129 220 220 220 220 138 138 138 138
 16 16 16 16 77 77 77 77 77 63 23 23 23 229 229 229 229 106 106 106
 106 220 220 220 138 138 138 138 138 116 116 116 116 77 77 77 77 27 27 27
 229 229 229 229 229 229 106 106 106 106 106 220 138 138 138 138 138 138 116 116
 116 116 77 77 27 27 27 27 27 229 229 229 229 229 229 106 106 106 106 106
 138 138 138 138 138 138 138 166 166 166 116 116 27 27 27 27 27 27 27 105
 105 105 105 105 106 106 106 106 106 138 138 138 138 138 138 166 166 166 166 166
 166 27 27 27 27 27 27 27 105 105 105 105 105 105 106 106 106 106 195 138
 138 138 138 138 166 166 166 166 166 166 27 27 27 27 27 27 27 105 105 105
 105 105 105 106 106 156 156 195 195 195 138 14 14 166 166 166 166 166 166 166
 27 27 27 27 27 27 105 105 105 105 105 105 156 156 156 156 195 195 195 204
 204 14 166 166 166 166 166 166 166 27 27 27 27 27 27 105 105 105 105 105
 156 156 156 156 156 195 195 195 204 204 204 166 166 166 166 166 166 166 188 188
 188 188 188 188 105 105 105 65 169 169 169 156 156 156 195 195 195 204 204 14
 14 166 166 166 166 166 188 188 188 188 188 188 188 184 184 137 65 169 169 169
 169 156 156 56 56 56 56 14 14 87 87 87 166 166 166 188 188 188 188 188
 188 184 184 184 137 137 169 169 169 169 169 156 56 56 56 56 87 87 87 87
 87 87 87 146 188 188 188 188 188 188 184 184 184 184 65 169 169 169 169 169
 56 56 56 56 56 87 87 87 87 87 87 87 87 188 188 188 188 188 184 184
 184 184 184 65 169 169 169 169 169 56 56 56 56 56 87 87 87 87 87 87
 87 87 188 188 188 188 184 184 184 184 184 184 246 246 19 19 169 56 56 103
 103 103 103 87 87 87 87 87 87 87 87 87 251 251 251 184 184 184 184 184
 184 246 246 19 19 19 19 103 103 103 103 103 103 87 87 87 87 87 87 87
 251 251 251 251 251 251 184 184 184 246 246 246 19 19 19 19 103 103 103 103
 103 103 87 194 194 192 192 192 192 251 251 251 251 251 251 251 184 184 246 246
 246 19 19 19 19 103 103 103 103 103 191 191 194 194 192 192 192 192 192 251
 251 251 251 251 251 184 184 246 246 246 19 19 19 103 103 103 103 103 103 191
 191 191 194 192 192 192 192 192 251 251 251 251 251 251 221 221 221 221 221 19
 19 240 240 103 103 103 103 191 191 191 191 191 191 192 192 192 192 251 251 251
 58 58 58 221 221 221 221 221 221 240 240 240 240 172 172 76 76 191 191 191
 191 191 185 185 185 234 234 58 58 58 58 80 80 221 221 90 90 90 240 240
 240 240 172 172 76 76 76 191 191 191 185 185 185 234 234 234 234 186 186 80
 80 80 80 90 90 90 90 240 240 240 240 172 172 76 76 76 191 191 185 185
 185 185 234 234 234 186 186 186 80 80 80 80 90 90 90 90 134 210 240 240
 172 172 76 76 76 76 185 185 185 185 185 234 234 234 186 186 186 80 80 80
 80 80 90 90 134 134 134 134 210 172 172 76 76 76 76 185 185 185 185 185
 234 234 96 96 96 186 23 23 23 23 23 23 134 134 134 134 134 210 210 172
 209 209 209 209 209 209 185 185 185 234 96 96 96 96 96 23 23 23 23 23
 84 129 129 129 129 129 210 220 220 209 209 209 209 209 209 209 185 185 234 96
 96 96 96 96 23 23 23 23 84 84 129 129 129 129 129 129 220 220 220 209
 209 209 209 209 209 209 77 77 77 77 63 63 63 23 23 23 23 84 84 84
 129 129 129 129 220 220 220 220 138 138 209 209 209 209 116 77 77 77 77 63
 63 63 23 23 91 23 84 84 84 129 129 129 220 220 220 220 220 138 138 138
 209 209 116 116 77 77 77 77 77 63 63 23 23 91 229 229 229 229 106 106
 106 220 220 220 220 138 138 138 138 138 116 116 116 116 116 77 77 77 206 27
 27 229 229 229 229 229 229 106 106 106 106 149 220 138 138 138 138 138 138 116
 116 116 116 116 77 27 27 27 27 27 229 229 229 229 229 229 106 106 106 106
 106 138 138 138 138 138 138 138 116 116 116 116 116 27 27 27 27 27 27 27
 229 229 229 229 229 106 106 106 106 106 138 138 138 138 138 138 166 166 166 166
 166 166 27 27 27 27 27 27 27 105 105 105 105 105 105 106 106 106 156 195
 95 95 95 95 95 166 166 166 166 166 166 166 27 27 27 27 27 27 105 105
 105 105 105 105 106 156 156 156 195 195 95 95 95 95 166 166 166 166 166 166
 166 27 27 27 27 27 27 105 105 105 105 105 105 156 156 156 156 156 195 204
 204 204 204 166 166 166 166 166 166 166 27 27 188 27 27 27 105 105 105 105
 105 156 156 156 156 156 156 195 204 204 204 204 166 166 166 166 166 166 166 188
 188 188 188 188 188 137 137 137 137 137 169 156 156 156 156 156 195 204 204 204
 204 87 166 166 166 166 166 188 188 188 188 188 188 188 137 137 137 137 137 169
 169 156 156 156 56 56 56 56 204 87 87 87 87 87 166 188 188 188 188 188
 188 188 188 137 137 137 137 137 169 169 169 156 156 56 56 56 56 87 87 87
 87 87 87 87 188 188 188 188 188 188 188 184 184 137 137 137 137 169 169 169
 169 56 56 56 56 56 87 87 87 87 87 87 87 87 188 188 188 188 188 184
 184 184 184 184 137 246 169 169 169 56 56 56 56 56 56 87 87 87 87 87
 87 87 87 188 188 188 188 188 184 184 184 184 246 246 246 246 169 162 56 56
 103 103 103 103 87 87 87 87 87 87 87 87 87 188 188 188 184 184 184 184
 184 246 246 246 246 246 162 103 103 103 103 103 103 87 87 87 87 87 87 87
 87 141 251 251 251 251 251 184 184 246 246 246 246 246 19 19 103 103 103 103
 103 103 103 87 194 194 192 192 192 192 141 251 251 251 251 251 251 184 246 246
 246 246 246 19 19 103 103 103 103 103 103 103 191 194 194 192 192 192 192 192
 251 251 251 251 251 58 58 246 246 246 246 246 240 240 103 103 103 103 103 103
 191 191 194 194 192 192 192 192 192 247 247 247 58 58 58 58 221 221 221 246
 246 240 240 240 103 240 103 103 103 191 191 191 194 192 192 192 192 192 58 58
 58 58 58 58 58 221 90 90 90 180 240 240 240 240 240 172 76 76 191 191
 191 191 191 192 192 185 234 58 58 58 58 58 58 58 90 90 90 90 180 240
 240 240 240 172 172 76 76 76 191 191 191 185 185 185 234 234 234 52 186 186
 58 80 80 90 90 90 90 180 240 240 240 240 172 172 76 76 76 76 191 185
 185 185 185 234 234 234 186 186 186 186 80 80 80 90 90 90 134 134 240 240
 240 172 172 76 76 76 76 185 185 185 185 185 234 234 186 186 186 186 186 23
 80 80 80 90 134 134 134 134 134 240 172 172 76 76 76 209 209 185 185 185
 185 234 234 96 96 186 186 23 23 23 23 23 23 134 134 134 134 134 134 172
 172 76 209 209 209 209 209 185 185 185 25 96 96 96 96 96 23 23 23 23
 23 84 134 134 134 134 134 134 220 220 209 209 209 209 209 209 209 25 25 25
 96 96 96 96 96 23 23 23 23 84 84 84 129 129 129 129 55 220 220 220
 209 209 209 209 209 209 25 25 77 77 96 96 96 96 23 23 23 23 84 84
 84 129 129 129 55 220 220 220 220 138 209 209 209 209 116 116 116 77 77 77
 63 63 63 23 91 91 91 84 84 84 84 129 129 220 220 220 220 220 138 138
 138 209 116 116 116 116 77 77 77 63 63 63 23 91 91 229 229 229 229 229
 106 106 220 220 149 149 138 138 138 138 116 116 116 116 116 116 116 206 206 206
 206 206 206 229 229 229 229 229 229 106 106 149 149 149 149 138 138 138 138 116
 116 116 116 116 116 116 206 206 206 206 206 229 229 229 229 229 229 229 106 106
 106 149 149 47 47 47 47 47 116 116 116 116 116 116 116 243 206 206 206 206
 206 229 229 229 229 229 229 106 106 106 149 47 47 47 47 47 47 47 166 116
 116 116 166 166 243 206 206 206 206 229 229 229 229 229 229 229 107 107 107 107
 95 95 95 95 95 95 166 166 166 166 166 166 166 27 27 27 27 27 27 105
 105 105 105 105 105 107 107 107 107 95 95 95 95 95 95 166 166 166 166 166
 166 166 27 27 27 27 27 27 105 105 105 105 105 107 107 107 107 107 156 95
 95 95 95 95 166 166 166 166 166 166 166 205 205 205 205 205 205 137 137 137
 137 137 156 156 156 156 156 156 195 204 204 204 204 166 166 166 166 166 166 166
 188 188 188 188 188 50 137 137 137 137 137 156 156 156 156 156 156 195 204 204
 204 204 87 166 166 166 166 166 188 188 188 188 188 188 50 137 137 137 137 137
 169 156 156 156 156 56 56 56 56 204 87 87 87 35 35 35 35 188 188 188
 188 188 50 50 137 137 137 137 137 169 169 156 156 156 56 56 56 56 87 87
 87 87 87 87 35 35 188 188 188 188 188 188 50 137 137 137 137 137 169 169
 169 156 56 56 56 56 56 87 87 87 87 87 87 87 87 188 188 188 188 188
 188 184 184 137 137 137 137 139 169 162 162 56 56 56 56 56 87 87 87 87
 87 87 87 87 188 188 188 188 188 184 184 184 184 246 246 246 139 139 162 162
 162 103 103 103 103 87 87 87 87 87 87 87 87 141 141 188 188 184 184 184
 184 246 246 246 246 139 139 162 162 162 103 103 103 103 87 87 87 87 87 87
 87 141 141 141 251 251 251 58 184 184 246 246 246 246 246 139 139 162 103 103
 103 103 103 103 87 87 87 87 192 192 141 141 141 247 247 247 58 58 246 246
 246 246 246 246 139 125 103 103 103 103 103 103 103 194 194 194 192 192 192 192
 141 247 247 247 247 58 58 58 246 246 246 246 246 240 240 103 103 103 103 103
 103 191 191 194 194 192 192 192 192 192 247 247 247 58 58 58 58 221 221 180
 180 180 240 240 240 240 240 103 103 76 191 191 194 194 192 192 192 192 192 247
 247 247 58 58 58 58 90 90 180 180 180 240 240 240 240 240 172 76 76 191
 191 191 191 192 192 192 192 122 58 58 58 58 58 58 58 90 90 90 180 180
 240 240 240 240 172 172 76 76 76 191 191 191 185 185 185 234 234 52 52 52
 58 58 58 58 90 90 90 180 180 240 240 240 240 172 172 172 76 76 76 191
 185 185 185 185 234 234 52 52 186 186 186 58 58 90 90 90 180 180 134 240
 240 240 172 172 172 76 76 76 76 185 185 185 25 25 25 186 186 186 186 186
 23 23 23 73 73 134 134 134 134 134 240 172 172 172 76 76 209 209 185 185
 25 25 25 25 186 186 186 186 186 23 23 23 73 73 134 134 134 134 134 55
 55 172 209 209 209 209 209 209 25 25 25 25 25 96 96 96 96 23 23 23
 23 23 73 73 134 134 134 134 55 55 220 209 209 209 209 209 209 209 25 25
 25 25 96 96 96 96 23 23 23 23 84 84 73 134 134 134 55 55 220 220
 220 209 209 209 209 209 209 25 25 25 96 96 96 96 96 23 23 23 23 84
 84 84 84 55 55 55 55 220 220 220 209 209 209 209 116 116 116 116 116 77
 77 63 63 96 23 23 91 23 84 84 84 84 55 55 55 55 220 220 220 138
 138 138 116 116 116 116 116 116 77 206 206 206 206 23 23 91 229 229 229 229
 229 55 55 220 220 149 149 149 149 138 138 116 116 116 116 116 116 116 206 206
 206 206 206 170 170 229 229 229 229 229 181 181 149 149 149 149 149 149 138 116
 116 116 116 116 116 116 243 206 206 206 206 206 170 170 229 229 229 229 229 181
 181 149 149 149 149 47 47 47 47 116 116 116 116 116 116 243 243 206 206 206
 206 170 170 229 229 229 229 229 107 107 149 149 149 47 47 47 47 47 47 116
 116 116 116 116 243 243 243 206 206 206 170 170 229 229 229 229 229 107 107 107
 107 107 95 95 95 95 95 117 117 117 166 166 166 166 243 243 205 27 206 170
 170 105 105 105 105 107 107 107 107 107 107 95 95 95 95 95 117 117 117 166
 166 166 166 205 205 205 205 205 205 170 105 105 105 107 107 107 107 107 107 107
 95 95 95 95 95 117 117 117 166 166 166 166 205 205 205 205 205 205 137 137
 137 137 137 107 107 107 107 107 107 95 95 95 95 95 117 117 117 166 166 166
 205 205 205 205 205 50 50 137 137 137 137 137 107 107 107 156 107 156 195 204
 204 204 204 35 35 35 35 35 35 188 188 188 205 50 50 50 137 137 137 137
 137 137 156 156 156 156 56 56 56 56 204 87 87 35 35 35 35 35 188 188
 188 188 50 50 50 137 137 137 137 137 137 2 2 156 162 56 56 56 56 87
 87 87 87 35 35 35 35 35 188 188 188 50 50 50 137 137 137 137 137 137
 2 2 2 162 162 56 56 56 87 87 87 87 87 87 35 35 35 188 188 188
 50 50 50 137 137 137 137 137 139 162 162 162 162 162 56 56 56 87 87 87
 87 87 87 87 87 141 188 188 188 50 50 184 184 246 246 246 139 139 139 162
 162 162 103 103 103 87 87 87 87 87 87 87 87 141 141 141 141 68 68 68
 184 184 246 246 246 139 139 139 162 162 162 103 103 103 103 87 87 87 87 87
 87 141 141 141 141 141 247 247 58 68 246 246 246 246 246 139 139 162 162 162
 103 103 103 103 103 87 87 87 87 141 141 141 141 141 247 247 247 58 58 246
 246 246 246 246 246 125 125 125 125 103 103 103 103 103 194 194 194 192 192 141
 141 141 141 247 247 247 58 58 58 246 246 246 246 246 125 125 125 125 103 103
 103 103 113 191 194 194 192 192 192 141 141 247 247 247 58 58 58 58 58 180
 180 180 180 240 240 125 125 240 103 103 76 191 191 194 194 192 192 192 122 122
 247 247 247 58 58 58 58 58 180 180 180 180 240 240 240 240 240 172 76 76
 191 191 191 191 192 192 122 122 122 122 58 58 58 58 58 58 58 180 180 180
 180 240 240 240 240 240 172 76 76 76 191 191 191 185 185 122 122 122 52 52
 52 58 58 58 58 58 180 180 180 180 240 240 240 240 172 172 172 76 76 76
 191 185 185 185 25 122 52 52 52 52 52 186 58 58 90 180 180 180 180 240
 240 240 240 172 172 172 76 76 76 76 25 25 25 25 25 25 52 52 186 186
 186 23 23 73 73 73 73 134 134 134 134 55 55 172 172 76 76 209 209 25
 25 25 25 25 25 25 186 186 186 186 23 23 73 73 73 73 134 134 134 55
 55 55 55 209 209 209 209 209 25 25 25 25 25 25 96 96 96 96 23 23
 23 73 73 73 73 134 134 55 55 55 55 55 209 209 209 209 209 209 25 25
 25 25 25 96 96 96 96 23 23 23 73 73 73 73 73 55 55 55 55 55
 55 217 217 209 209 209 209 116 25 25 190 190 96 96 96 96 23 23 23 73
 73 73 73 73 55 55 55 55 55 220 149 217 217 217 209 116 116 116 190 190
 190 190 63 63 96 23 23 23 23 73 73 73 73 55 55 55 55 149 149 149
 149 217 217 116 116 116 116 116 190 190 206 206 206 206 206 23 170 170 229 229
 229 181 55 55 55 55 149 149 149 149 217 217 116 116 116 116 116 190 190 206
 206 206 206 206 170 170 170 170 229 229 181 181 181 181 149 149 149 149 149 217
 116 116 116 116 116 116 116 243 243 206 206 206 206 170 170 170 170 229 229 181
 181 181 149 149 149 149 149 47 47 47 116 116 116 116 116 116 243 243 243 206
 206 206 170 170 170 170 229 229 229 181 107 107 149 149 149 47 47 47 47 135
 116 116 116 116 116 243 243 243 206 206 170 170 170 170 170 229 229 107 107 107
 107 107 107 95 95 95 95 95 135 117 117 117 117 166 243 243 243 205 205 170
 170 170 170 170 105 107 107 107 107 107 107 107 95 95 95 95 95 135 117 117
 117 117 166 205 205 205 205 205 205 205 170 170 137 107 107 107 107 107 107 107
 107 95 95 95 95 95 117 117 117 117 117 166 205 205 205 205 205 205 205 137
 137 137 137 107 107 107 107 107 107 107 95 95 95 95 95 117 117 117 35 35
 35 205 205 205 205 205 205 50 137 137 137 137 137 107 107 107 107 107 107 95
 95 95 95 35 35 35 35 35 35 35 205 205 205 205 50 50 50 50 137 137
 137 137 137 107 107 107 107 2 56 56 95 95 35 35 35 35 35 35 35 35
 205 205 50 50 50 50 50 137 137 137 137 137 2 2 2 2 2 56 56 56
 87 87 87 35 35 35 35 35 35 188 188 50 50 50 50 50 137 137 137 137
 137 2 2 2 2 162 56 56 56 87 87 87 87 87 35 35 35 35 188 188
 50 50 50 50 50 137 137 137 137 139 162 2 2 162 162 56 56 56 87 87
 87 87 87 87 87 35 141 141 68 68 68 68 68 68 137 246 246 139 139 162
 162 162 162 162 103 103 87 87 87 42 42 42 87 141 141 141 141 68 68 68
 68 68 68 246 246 246 139 139 139 162 162 162 103 103 103 103 87 87 42 42
 42 141 141 141 141 141 68 68 68 68 68 68 246 246 246 139 139 139 162 162
 125 125 103 103 103 103 87 42 42 42 141 141 141 141 141 247 247 68 68 68
 68 246 246 246 246 139 125 125 125 125 125 103 103 103 113 113 113 42 141 141
 141 141 141 141 247 247 247 58 58 58 58 246 246 246 139 125 125 125 125 125
 103 132 113 113 113 113 194 192 141 141 141 141 247 247 247 58 58 58 58 58
 180 180 180 180 125 125 125 125 240 132 132 113 113 113 113 223 223 223 122 122
 122 247 247 247 58 58 58 58 58 180 180 180 180 240 240 240 240 240 240 76
 76 113 113 223 223 223 223 122 122 122 122 58 58 58 58 58 58 58 180 180
 180 180 240 240 240 240 240 172 76 76 76 76 223 223 223 223 122 122 122 52
 52 52 58 58 58 58 58 180 180 180 180 240 240 240 240 172 172 172 76 76
 76 45 45 45 25 25 122 122 52 52 52 52 58 58 58 73 180 180 180 180
 240 240 240 240 172 172 172 76 76 76 76 25 25 25 25 25 25 52 52 52
 52 186 58 73 73 73 73 73 134 134 55 55 55 55 55 21 21 76 209 25
 25 25 25 25 25 25 25 52 52 186 186 73 73 73 73 73 73 73 55 55
 55 55 55 55 55 217 217 209 209 25 25 25 25 25 25 25 1 1 1 23
 73 73 73 73 73 73 73 55 55 55 55 55 55 217 217 217 209 209 25 25
 25 25 25 190 190 1 1 1 1 73 73 73 73 73 73 73 55 55 55 55
 55 55 217 217 217 217 217 25 25 190 190 190 190 190 1 1 1 23 73 73
 73 73 73 73 73 55 55 55 55 55 217 217 217 217 217 217 116 116 190 190
 190 190 190 190 1 206 23 73 73 73 73 73 73 181 181 55 55 55 149 149
 149 217 217 217 217 116 116 116 190 190 190 206 206 206 206 206 170 170 170 73
 73 73 181 181 181 55 55 149 149 149 217 217 217 217 116 116 116 190 190 190
 206 206 206 206 170 170 170 170 170 170 181 181 181 181 181 149 149 149 149 149
 217 217 116 116 116 116 116 190 190 206 206 206 206 170 170 170 170 170 170 181
 181 181 181 149 149 149 149 149 149 47 47 116 116 116 116 116 116 243 243 206
 206 206 170 170 170 170 170 170 233 233 107 107 107 149 149 149 149 47 47 47
 135 117 117 116 116 116 243 243 243 206 206 170 170 170 170 170 233 233 233 107
 107 107 107 107 107 95 95 95 135 135 135 117 117 117 117 243 243 205 205 205
 170 170 170 170 170 233 233 233 107 107 107 107 107 107 95 95 95 135 135 135
 117 117 117 117 205 205 205 205 205 205 170 170 170 233 233 233 233 107 107 107
 107 107 107 95 95 95 95 135 135 117 117 117 117 205 205 205 205 205 205 205
 205 161 83 233 233 233 233 107 107 107 107 107 95 95 95 95 35 35 35 35
 35 35 205 205 205 205 205 205 205 205 137 83 137 233 233 233 107 107 107 107
 107 95 95 95 35 35 35 35 35 35 35 205 205 205 205 205 50 50 50 137
 137 137 137 233 233 107 107 107 2 2 140 33 33 35 35 35 35 35 35 35
 35 205 205 205 50 50 50 50 137 137 137 137 137 2 2 2 2 2 2 56
 33 87 87 35 35 35 35 35 35 35 205 205 50 50 50 50 50 137 137 137
 137 137 2 2 2 2 2 2 56 140 87 87 87 42 35 35 35 35 35 163
 163 50 50 50 50 50 137 83 137 137 139 2 2 2 2 162 162 56 87 87
 87 42 42 42 35 35 163 163 141 68 68 68 68 68 68 137 83 246 139 139
 162 162 162 162 162 162 162 42 42 42 42 42 42 141 141 141 141 141 68 68
 68 68 68 68 68 246 246 139 139 162 162 162 162 162 162 132 132 42 42 42
 42 42 141 141 141 141 141 68 68 68 68 68 68 68 246 246 139 139 162 162
 125 125 125 132 132 132 113 113 42 42 42 141 141 141 141 141 68 68 68 68
 68 68 68 246 246 246 139 125 125 125 125 125 132 132 132 113 113 113 113 42
 141 141 141 141 141 247 247 68 68 68 68 68 246 246 246 125 125 125 125 125
 125 132 132 113 113 113 113 223 223 223 141 141 141 141 247 247 58 58 58 58
 58 58 180 180 94 125 125 125 125 132 132 132 113 113 113 113 223 223 223 122
 122 122 122 247 58 58 58 58 58 58 180 180 180 94 94 94 125 125 132 132
 132 113 113 113 223 223 223 223 122 122 122 122 58 58 58 58 58 58 58 180
 180 180 94 94 94 240 240 240 132 21 21 113 113 223 223 223 223 122 122 122
 122 52 52 58 58 58 58 58 180 180 180 94 94 94 240 240 21 21 21 21
 21 45 45 45 45 45 45 122 122 122 52 52 52 58 58 58 73 73 73 180
 94 94 94 240 240 21 21 21 21 21 21 45 45 45 45 25 25 25 52 52
 52 52 186 58 73 73 73 73 73 73 55 55 55 55 21 21 21 21 21 217
 25 25 25 25 25 25 25 1 1 1 1 1 73 73 73 73 73 73 73 55
 55 55 55 55 21 21 217 217 217 217 75 75 25 25 25 25 1 1 1 1
 1 73 73 73 73 73 73 73 55 55 55 55 55 55 217 217 217 217 217 75
 75 75 25 190 190 190 1 1 1 1 73 73 73 73 73 73 73 55 55 55
 55 55 217 217 217 217 217 217 75 75 190 190 190 190 190 1 1 1 1 73
 73 73 73 73 73 55 55 55 55 55 55 217 217 217 217 217 217 217 116 190
 190 190 190 190 1 1 1 1 73 73 73 73 73 73 181 181 181 55 55 149
 149 217 217 217 217 217 116 116 190 190 190 190 190 206 206 206 206 170 170 170
 73 73 73 181 181 181 181 55 149 149 149 217 217 217 217 116 116 190 190 190
 190 206 206 206 206 170 170 170 170 170 170 181 181 181 181 181 149 149 149 149
 149 217 217 199 116 116 116 190 249 249 206 206 206 206 170 170 170 170 170 170
 181 181 181 181 181 149 149 149 149 149 217 199 199 116 116 116 116 249 249 243
 206 206 206 170 170 170 170 170 170 233 233 233 233 107 149 149 149 149 149 47
 199 135 135 117 116 116 249 243 243 243 206 206 170 170 170 170 170 233 233 233
 233 107 107 107 107 107 95 95 95 135 135 135 117 117 117 54 54 54 205 205
 205 205 170 170 170 233 233 233 233 233 107 107 107 107 107 95 95 95 135 135
 135 135 117 54 54 54 54 205 205 205 205 205 49 161 233 233 233 233 233 107
 107 107 107 107 95 95 95 135 135 135 117 117 54 54 54 54 205 205 205 205
 205 161 161 161 161 233 233 233 233 107 107 107 107 95 33 33 33 135 35 35
 35 35 54 54 205 205 205 205 205 205 205 161 161 161 233 233 233 233 107 107
 107 107 33 33 33 33 33 35 35 35 35 35 54 205 205 205 205 205 50 83
 83 83 83 83 233 233 233 107 107 2 140 140 33 33 33 33 35 35 35 35
 35 35 205 205 205 205 50 50 83 83 83 83 83 233 233 2 2 2 2 2
 140 33 33 33 33 35 35 35 35 35 35 205 205 205 50 50 50 83 83 83
 83 83 83 2 2 2 2 2 2 140 140 33 33 42 42 35 35 35 163 163
 163 163 205 157 157 157 83 83 83 83 83 2 2 2 2 2 162 140 140 140
 87 87 42 42 42 163 163 163 163 163 68 68 157 157 157 157 83 83 83 139
 139 2 2 2 2 162 140 140 140 42 42 42 42 42 163 163 163 163 163 68
 68 68 157 157 68 68 239 239 139 139 162 162 162 162 125 132 132 132 113 42
 42 42 42 141 141 141 141 141 68 68 68 68 68 68 68 246 246 139 28 28
 162 125 125 125 132 132 132 113 113 113 42 42 141 141 141 141 141 68 68 68
 68 68 68 142 142 246 239 28 125 125 125 125 132 132 132 132 113 113 113 113
 223 141 141 141 141 141 68 68 68 68 68 142 142 142 142 239 125 125 125 125
 125 132 132 132 113 113 113 113 113 223 223 223 141 141 141 78 78 68 68 68
 142 142 142 94 94 94 94 125 125 125 132 132 132 113 113 113 113 223 223 223
 223 122 122 122 247 58 58 58 58 58 142 142 94 94 94 94 94 94 125 132
 132 132 113 113 113 223 223 223 223 223 122 122 122 58 58 58 58 58 58 20
 20 94 94 94 94 94 94 94 132 132 132 21 113 113 223 223 223 223 223 122
 122 122 52 52 58 58 58 147 20 20 94 94 94 94 94 94 240 21 21 21
 21 21 173 45 45 45 45 45 45 122 122 52 52 52 58 147 147 73 59 94
 94 94 94 94 94 21 21 21 21 21 21 173 45 45 45 45 45 45 25 1
 1 1 1 1 197 73 73 59 59 59 59 55 55 55 21 21 21 21 21 21
 217 39 45 45 45 25 25 25 1 1 1 1 1 197 73 73 59 59 59 59
 55 55 55 55 21 21 21 21 217 217 217 75 75 75 75 25 190 1 1 1
 1 1 197 73 73 59 59 59 59 55 55 55 55 55 21 217 217 217 217 217
 75 75 75 75 190 190 1 1 1 1 1 197 73 73 73 73 59 55 55 55
 55 55 55 217 217 217 217 217 217 75 75 75 190 190 190 1 1 1 1 1
 73 73 73 73 73 73 55 55 55 55 55 217 217 217 217 217 217 217 75 75
 190 190 190 190 190 1 1 1 1 73 73 73 73 73 73 181 181 181 55 55
 149 217 217 217 217 217 217 217 116 190 190 190 190 190 1 1 1 1 170 170
 170 73 73 73 181 181 181 181 55 149 217 217 217 217 217 199 199 116 249 249
 249 249 249 206 206 206 170 170 170 170 123 123 123 123 181 181 181 149 149 149
 149 217 199 199 199 199 249 249 249 249 249 249 249 206 206 170 170 170 170 123
 123 123 123 181 181 181 149 149 149 149 149 199 199 199 199 116 249 249 249 249
 249 249 206 206 170 170 170 170 123 123 123 123 233 233 107 149 149 149 149 149
 199 199 199 135 135 249 249 249 249 249 249 206 206 170 170 170 170 170 233 233
 233 233 233 107 107 107 107 149 149 199 199 135 135 135 117 249 54 54 54 54
 205 205 205 49 49 49 233 233 233 233 233 233 107 107 107 107 37 37 37 135
 135 135 135 117 54 54 54 54 54 205 205 205 49 49 49 49 233 233 233 233
 233 107 107 107 107 37 37 33 33 135 135 117 117 54 54 54 54 54 205 205
 205 49 49 161 161 161 233 233 233 233 107 107 107 107 33 33 33 33 33 35
 35 35 54 54 54 54 205 205 205 205 49 49 161 161 161 233 233 233 233 233
 107 140 140 33 33 33 33 33 35 35 35 35 54 54 54 205 205 205 205 49
 83 83 83 83 83 233 233 233 233 107 140 140 140 33 33 33 33 33 35 35
 35 54 54 54 205 205 205 205 49 83 83 83 83 83 233 233 233 2 2 140
 140 140 33 33 33 33 33 35 35 35 35 163 163 205 205 50 50 50 83 83