# vtk DataFile Version 2.0
Data set from ImportExport Version 6.5.171.b0b162591
ASCII

DATASET RECTILINEAR_GRID
DIMENSIONS 30 30 30
X_COORDINATES 30 float
-1.250000 1.250000 3.750000 6.250000 8.750000 11.250000 13.750000 16.250000 18.750000 21.250000 23.750000 26.250000 28.750000 31.250000 33.750000 36.250000 38.750000 41.250000 43.750000 46.250000 48.750000 
51.250000 53.750000 56.250000 58.750000 61.250000 63.750000 66.250000 68.750000 71.250000 
Y_COORDINATES 30 float
-1.250000 1.250000 3.750000 6.250000 8.750000 11.250000 13.750000 16.250000 18.750000 21.250000 23.750000 26.250000 28.750000 31.250000 33.750000 36.250000 38.750000 41.250000 43.750000 46.250000 48.750000 
51.250000 53.750000 56.250000 58.750000 61.250000 63.750000 66.250000 68.750000 71.250000 
Z_COORDINATES 30 float
-1.250000 1.250000 3.750000 6.250000 8.750000 11.250000 13.750000 16.250000 18.750000 21.250000 23.750000 26.250000 28.750000 31.250000 33.750000 36.250000 38.750000 41.250000 43.750000 46.250000 48.750000 
51.250000 53.750000 56.250000 58.750000 61.250000 63.750000 66.250000 68.750000 71.250000 
CELL_DATA 24389
SCALARS FeatureIds int 1
LOOKUP_TABLE default
 187 151 65 65 65 151 151 236 236 236 236 198 198 198 198 243 61 61 61 61
 237 237 237 237 237 187 187 187 187 187 151 65 65 65 151 151 236 236 236 236
 236 198 198 243 243 243 61 61 61 61 237 237 237 187 187 187 187 187 187 151
 65 65 151 151 151 236 236 236 236 236 236 243 243 243 243 61 61 100 93 93
 93 237 187 187 187 187 187 187 151 151 151 151 151 151 236 236 236 236 236 243
 243 243 243 243 145 100 100 100 100 100 181 181 187 187 187 187 187 151 151 109
 151 151 151 37 236 37 236 37 243 243 243 243 145 145 100 100 100 100 100 181
 181 181 181 187 187 109 109 109 109 109 109 109 37 37 37 37 37 37 243 243
 145 145 145 145 100 100 100 100 181 181 181 181 181 51 109 109 109 109 109 109
 109 37 37 37 37 37 37 243 145 145 145 145 145 145 100 100 100 181 181 181
 181 51 51 51 109 109 109 109 109 109 37 37 37 37 37 37 37 145 145 145
 145 145 145 196 196 196 114 181 181 51 51 51 51 109 109 109 109 109 109 37
 37 37 37 37 37 37 222 222 222 222 145 145 196 196 114 114 114 51 51 51
 51 51 109 109 109 109 109 37 37 37 37 37 37 206 206 222 222 222 222 222
 222 222 196 114 114 114 51 51 51 51 51 109 109 109 109 109 37 37 37 206
 206 206 206 206 206 222 222 222 222 222 222 114 114 114 114 114 51 51 51 51
 109 166 166 166 166 166 166 206 206 206 206 206 206 206 135 135 135 135 135 135
 186 186 186 186 186 51 51 51 51 166 166 166 166 166 166 166 206 206 206 206
 206 206 206 135 135 135 135 135 186 186 186 186 186 186 230 230 51 166 166 166
 166 166 166 166 166 166 206 206 206 206 206 206 135 135 135 135 135 186 186 186
 186 186 230 230 230 230 136 166 166 166 166 166 166 166 166 31 31 31 31 31
 19 19 36 36 36 186 186 186 186 186 186 186 230 230 230 136 136 166 166 166
 166 166 166 31 31 31 31 31 31 19 19 19 19 19 19 186 186 186 186 186
 186 230 136 136 136 136 136 166 166 166 166 166 160 160 160 160 160 160 19 19
 19 19 19 19 19 186 186 186 186 186 136 136 136 136 136 136 41 41 41 41
 41 160 160 160 160 160 160 19 19 19 19 19 19 19 19 186 186 186 136 136
 136 136 136 136 136 41 41 41 41 41 235 160 160 160 160 160 19 19 19 19
 19 19 185 50 50 1 1 136 136 136 136 136 136 136 41 41 41 41 235 235
 235 160 160 160 160 19 19 19 19 19 185 50 50 50 1 1 1 136 136 136
 136 136 136 41 41 41 46 46 235 235 235 160 160 62 19 19 19 19 19 50
 50 50 50 1 1 1 136 136 136 136 136 136 41 41 46 46 46 235 235 235
 235 62 62 62 189 189 189 189 50 50 50 50 1 1 1 245 245 136 245 245
 245 41 235 235 46 46 235 235 80 62 62 62 62 189 189 189 189 50 50 50
 50 1 1 1 245 245 245 245 245 245 235 235 235 235 235 235 80 80 62 62
 62 62 189 189 189 189 189 50 50 50 1 1 245 245 245 245 245 245 67 67
 67 67 235 235 80 80 80 62 62 62 62 189 189 189 189 189 50 50 174 174
 245 245 245 245 245 245 245 67 67 67 67 67 235 80 80 62 62 62 62 62
 189 189 189 189 189 174 174 174 174 174 245 245 245 245 245 67 67 67 67 67
 67 67 80 198 198 198 62 62 62 189 189 189 189 189 174 174 174 174 174 174
 245 245 245 187 67 67 67 67 67 67 67 198 198 198 198 198 62 62 189 189
 189 189 189 174 174 174 174 174 174 187 187 187 187 151 151 151 151 67 67 236
 236 236 198 198 198 198 198 198 61 61 61 61 237 237 237 237 174 187 187 187
 187 187 65 65 65 65 65 65 236 236 236 236 236 198 198 198 243 61 61 61
 61 61 61 237 237 187 187 187 187 187 187 65 65 65 65 65 65 236 236 236
 236 236 198 243 243 243 243 61 61 61 61 93 93 187 187 187 187 187 187 187
 65 65 65 65 65 65 236 236 236 236 236 243 243 243 243 243 61 61 61 93
 93 93 187 187 187 187 187 187 187 65 65 65 65 65 65 236 236 236 236 236
 243 243 243 243 243 243 61 100 93 93 93 181 181 181 187 187 187 187 109 109
 109 109 109 190 37 37 37 37 243 243 243 243 243 243 145 145 100 100 93 100
 181 181 181 181 187 187 109 109 109 109 109 109 190 37 37 37 37 37 243 243
 243 145 145 145 145 145 196 196 196 181 181 181 181 181 181 109 109 109 109 109
 109 190 37 37 37 37 37 37 243 145 145 145 145 145 145 196 196 196 181 181
 181 181 51 51 51 109 109 109 109 109 190 37 37 37 37 37 37 37 145 145
 145 145 145 145 196 196 196 196 181 51 51 51 51 51 109 109 109 109 109 190
 37 37 37 37 37 37 37 145 222 222 222 145 145 196 196 196 196 114 51 51
 51 51 51 109 109 109 109 109 190 37 37 37 37 37 37 37 222 222 222 222
 222 222 196 196 196 196 114 51 51 51 51 51 109 109 109 109 166 190 37 37
 37 37 206 206 206 222 222 222 222 222 222 196 196 186 186 186 51 51 51 51
 51 109 166 166 166 166 166 166 206 206 206 206 206 206 222 222 222 222 222 222
 222 186 186 186 186 186 68 51 51 51 166 166 166 166 166 166 166 166 206 31
 31 31 206 206 135 36 36 36 135 186 186 186 186 186 186 68 68 51 166 166
 166 166 166 166 166 166 31 31 31 31 31 31 31 36 36 36 36 36 186 186
 186 186 186 186 186 186 51 166 166 166 166 166 166 166 166 31 31 31 31 31
 31 31 36 36 36 36 36 186 186 186 186 186 186 186 186 136 136 166 166 166
 166 166 166 166 31 31 31 31 31 31 31 36 36 36 36 36 186 186 186 186
 186 186 186 136 136 136 136 166 166 166 166 166 166 31 31 160 160 160 31 31
 19 19 19 19 19 19 186 186 186 186 186 136 136 136 136 136 41 41 41 41
 41 41 160 160 160 160 160 160 19 19 19 19 19 19 19 19 186 186 215 215
 136 136 136 136 136 41 41 41 41 41 41 160 160 160 160 160 160 19 19 19
 19 19 19 19 50 50 50 215 215 136 136 136 136 136 41 41 41 41 41 235
 235 160 160 160 160 160 19 19 19 19 19 19 50 50 50 50 1 215 136 136
 136 136 136 41 41 41 41 46 46 46 46 160 160 160 160 19 19 19 19 19
 50 50 50 50 50 1 1 245 136 136 245 245 245 35 35 35 46 46 46 46
 80 80 62 62 56 189 189 189 189 50 50 50 50 50 1 245 245 245 245 245
 245 245 35 35 35 46 46 46 80 80 80 62 62 62 189 189 189 189 50 50
 50 50 50 245 245 245 245 245 245 245 245 35 35 35 46 46 80 80 80 80
 62 62 62 189 189 189 189 189 50 50 50 50 245 245 245 245 245 245 245 67
 67 67 67 170 170 80 80 80 62 62 62 62 189 189 189 189 189 50 50 174
 174 245 245 245 245 245 245 245 67 67 67 67 170 170 80 80 80 62 62 62
 62 189 189 189 189 189 174 174 174 174 174 245 245 245 245 245 67 67 67 67
 67 67 170 170 198 198 198 198 62 62 189 189 189 189 189 174 174 174 174 174
 174 245 245 245 187 67 67 67 67 67 67 170 236 236 198 198 198 198 198 189
 189 61 61 61 174 174 174 174 174 174 187 187 187 187 151 65 65 67 67 67
 236 236 236 198 198 198 198 198 198 61 61 61 61 61 174 174 174 174 187 187
 187 187 187 65 65 65 65 65 193 236 236 236 236 236 94 94 94 94 61 61
 61 61 61 61 61 187 187 187 187 187 187 187 65 65 65 65 65 193 236 236
 236 236 236 94 243 243 243 61 61 61 61 61 93 93 187 187 187 187 187 187
 187 65 65 65 65 65 193 236 236 236 236 236 243 243 243 243 243 61 61 61
 93 93 93 93 187 187 187 187 187 187 65 65 65 65 65 193 236 236 236 236
 243 243 243 243 243 243 243 61 61 93 93 93 93 181 187 187 187 187 187 65
 65 109 65 109 190 190 236 37 236 243 243 243 243 243 243 243 145 93 93 93
 93 93 181 181 181 187 187 109 109 109 109 109 109 190 190 37 37 37 37 243
 243 243 243 145 145 145 196 196 196 196 196 181 181 181 181 181 109 109 109 109
 109 190 190 190 37 37 37 37 243 243 243 145 145 145 145 196 196 196 196 196
 181 181 181 51 51 51 109 109 109 109 190 190 190 37 37 37 37 37 243 145
 145 145 145 145 196 196 196 196 196 181 51 51 51 51 51 109 109 109 109 190
 190 190 37 37 37 37 37 37 145 145 222 222 222 196 196 196 196 196 196 51
 51 51 51 51 109 109 109 109 190 190 190 37 37 37 37 37 37 222 222 222
 222 222 222 196 196 196 196 196 51 51 51 51 51 109 109 109 109 166 190 190
 37 37 37 37 37 206 222 222 222 222 222 222 196 196 196 186 186 68 51 51
 51 51 15 15 15 166 166 166 166 166 31 31 206 31 31 222 222 222 222 222
 222 222 186 186 186 186 68 68 68 68 15 15 166 166 166 166 166 166 166 31
 31 31 31 31 31 36 36 36 36 36 186 186 186 186 186 68 68 68 68 166
 166 166 166 166 166 166 166 31 31 31 31 31 31 31 36 36 36 36 36 186
 186 186 186 186 186 68 68 68 166 166 166 166 166 166 166 166 31 31 31 31
 31 31 31 36 36 36 36 36 36 186 186 186 186 186 68 68 68 136 166 166
 166 166 166 166 166 31 31 31 31 31 31 31 36 36 36 36 36 36 186 186
 186 186 186 68 68 136 136 136 166 166 166 166 166 166 31 31 31 31 31 31
 31 36 36 36 36 36 36 186 186 186 106 106 215 215 136 136 136 41 41 41
 41 41 41 31 31 160 160 160 31 31 19 19 19 19 19 19 19 186 186 215
 215 215 215 136 136 136 41 41 41 41 41 41 160 160 160 160 160 160 19 19
 19 19 19 19 19 50 50 215 215 215 215 215 136 136 136 41 41 41 41 35
 35 46 107 160 160 160 107 19 19 19 19 19 19 50 50 50 50 215 215 215
 215 136 245 245 41 41 35 35 35 46 46 46 107 160 107 56 56 56 56 19
 19 50 50 50 50 50 215 215 215 245 245 245 245 245 35 35 35 35 46 46
 46 80 107 107 56 56 56 189 189 189 50 50 50 50 50 245 245 245 245 245
 245 245 245 35 35 35 35 46 46 80 80 80 62 56 56 189 189 189 189 50
 50 50 50 50 245 245 245 245 245 245 245 245 35 35 35 46 46 80 80 80
 80 62 62 56 189 189 189 189 189 50 50 50 50 245 245 245 245 245 245 245
 245 10 10 170 170 170 80 80 80 80 62 62 62 189 189 189 189 189 50 50
 174 174 245 245 245 245 245 245 245 67 67 67 67 170 170 170 80 80 198 62
 62 62 189 189 189 189 189 174 174 174 174 174 245 245 245 245 245 67 67 67
 67 67 170 170 170 170 198 198 198 198 62 189 189 189 189 26 174 174 174 174
 174 174 245 245 245 187 67 67 67 67 67 170 170 170 170 198 198 198 198 198
 26 26 61 61 61 61 174 174 174 174 174 187 187 187 187 187 65 65 65 67
 170 236 236 236 236 198 198 198 198 198 61 61 61 61 61 174 174 174 174 187
 187 187 187 187 2 2 65 193 193 193 193 236 236 94 94 94 94 94 94 61
 61 61 61 61 61 61 16 16 16 187 187 187 187 2 2 65 193 193 193 193
 236 236 236 94 94 94 243 243 61 61 61 61 61 126 126 16 16 16 187 187
 187 2 2 2 65 193 193 193 193 236 236 236 94 243 243 243 243 61 61 61
 61 126 93 93 126 16 16 187 187 187 2 2 2 65 193 193 193 193 236 236
 236 243 243 243 243 243 243 61 61 126 93 93 93 93 16 16 187 187 187 2
 2 109 109 193 193 193 190 190 236 243 243 243 243 243 243 243 243 145 126 93
 93 93 93 181 181 181 187 187 108 109 109 109 109 190 190 190 190 37 37 37
 243 243 243 243 145 145 145 196 196 196 196 196 181 181 181 181 181 109 109 109
 109 109 190 190 190 190 37 37 37 243 243 243 145 145 145 145 196 196 196 196
 196 181 181 51 51 51 51 109 109 109 109 190 190 190 190 37 37 37 37 188
 188 145 145 145 145 196 196 196 196 196 38 38 51 51 51 51 109 109 109 109
 190 190 190 190 37 37 37 37 188 188 188 222 222 222 196 196 196 196 196 196
 51 51 51 51 51 109 109 109 15 190 190 190 190 37 37 37 37 188 188 188
 188 222 222 196 196 196 196 196 196 51 51 51 51 51 43 15 15 15 15 190
 190 190 37 37 37 188 188 188 188 188 222 222 222 196 196 196 196 68 68 68
 68 51 15 15 15 15 15 15 166 166 90 90 90 31 31 31 188 188 188 222
 222 222 196 196 186 186 68 68 68 68 68 15 15 15 15 166 166 166 166 90
 90 90 31 31 31 31 36 36 36 36 36 186 186 186 186 68 68 68 68 68
 112 15 15 166 166 166 166 166 90 31 31 31 31 31 31 36 36 36 36 36
 36 186 186 186 186 68 68 68 68 112 166 166 166 166 166 166 166 31 31 31
 31 31 31 31 36 36 36 36 36 36 186 186 186 106 68 68 68 68 112 166
 166 166 166 166 166 6 31 31 31 31 31 31 31 36 36 36 36 36 36 186
 106 106 106 106 106 68 68 136 158 158 158 166 166 6 6 31 31 31 31 31
 31 31 36 36 36 36 36 36 36 106 106 106 106 215 215 136 136 158 158 158
 158 158 6 6 31 31 31 31 31 31 31 36 36 36 36 36 36 36 106 106
 215 215 215 215 136 136 4 158 158 41 41 41 41 31 31 107 107 107 107 107
 19 19 19 19 19 19 50 215 215 215 215 215 215 215 4 4 41 41 35 35
 35 35 107 107 107 107 107 107 56 56 19 19 19 19 50 50 50 215 215 215
 215 215 215 245 4 4 35 35 35 35 35 107 107 107 107 107 56 56 56 56
 217 217 50 50 50 50 215 215 215 215 215 245 245 245 245 35 35 35 35 35
 46 107 107 107 107 56 56 56 56 217 217 50 50 50 50 50 215 215 245 245
 245 245 245 245 35 35 35 35 35 46 80 80 107 56 56 56 56 56 189 189
 59 50 50 50 50 245 245 245 245 245 245 245 10 10 10 35 35 170 80 80
 80 80 56 56 56 56 189 189 189 59 59 50 50 50 245 245 245 207 245 245
 245 10 10 10 10 170 170 170 80 80 80 62 62 56 189 189 189 189 59 59
 59 174 174 245 245 245 245 245 245 245 10 10 10 10 170 170 170 170 80 198
 198 62 69 69 189 189 189 59 59 174 174 174 174 245 245 245 245 245 245 67
 67 67 170 170 170 170 170 198 198 198 94 69 69 26 26 26 26 26 174 174
 174 174 245 245 245 245 245 245 67 67 67 67 170 170 170 170 94 94 198 94
 94 26 26 26 26 26 61 174 174 174 174 174 245 187 245 187 2 65 193 193
 193 193 193 236 236 94 94 94 94 94 94 26 61 61 61 61 61 174 174 174
 187 187 187 187 2 2 2 193 193 193 193 193 193 94 94 94 94 94 94 94
 61 61 61 61 61 61 61 16 16 16 16 187 2 2 2 2 193 193 193 193
 193 193 94 94 94 94 94 94 94 61 61 61 61 61 126 126 16 16 16 16
 187 2 2 2 2 193 193 193 193 193 193 94 94 94 94 94 243 243 61 61
 61 61 126 126 126 126 16 16 16 187 2 2 2 2 2 193 193 193 193 193
 236 94 94 243 243 243 243 243 61 61 126 126 126 126 126 16 16 16 187 2
 2 2 2 2 193 193 193 193 190 25 25 25 243 243 243 243 27 27 27 126
 126 93 93 126 16 16 16 187 108 108 108 108 109 109 190 190 190 190 190 25
 25 25 243 243 27 27 27 27 196 196 196 196 196 38 38 38 38 108 108 108
 109 109 109 190 190 190 190 190 25 25 25 25 27 27 27 27 27 196 196 196
 196 196 38 38 38 38 38 51 109 109 109 109 190 190 190 190 190 37 25 25
 188 188 188 188 27 145 196 196 196 196 196 38 38 38 38 38 51 109 109 109
 109 190 190 190 190 190 37 37 188 188 188 188 188 188 222 196 196 196 196 196
 38 38 38 38 38 43 43 15 15 15 15 190 190 190 190 37 37 188 188 188
 188 188 188 222 196 196 196 196 196 38 38 38 38 43 43 43 15 15 15 15
 190 190 190 90 90 90 188 188 188 188 188 188 222 222 196 196 196 196 68 68
 68 68 43 43 43 15 15 15 15 15 90 90 90 90 90 90 188 188 188 188
 188 222 222 196 196 196 68 68 68 68 68 68 43 15 15 15 15 15 166 90
 90 90 90 90 31 31 188 188 36 36 36 36 36 186 186 68 68 68 68 68
 68 112 15 15 15 166 166 166 6 90 90 90 31 31 31 31 36 36 36 36
 36 36 186 186 186 68 68 68 68 68 112 15 166 166 166 166 6 6 6 90
 31 31 31 31 31 36 36 36 36 36 36 186 106 106 106 106 68 68 68 112
 158 158 158 158 166 6 6 6 31 31 31 31 31 31 36 36 36 36 36 36
 36 106 106 106 106 106 68 112 158 158 158 158 158 158 6 6 6 31 31 31
 31 31 31 36 36 36 36 36 36 106 106 106 106 106 215 215 215 158 158 158
 158 158 158 6 6 6 31 31 31 31 31 31 36 36 36 36 36 36 106 106
 106 215 215 215 215 215 4 4 158 158 158 158 6 6 6 107 107 107 107 107
 107 36 36 36 36 36 36 215 215 215 215 215 215 215 215 4 4 4 158 158
 35 35 35 107 107 107 107 107 107 56 56 56 217 217 217 50 50 215 215 215
 215 215 215 215 4 4 4 35 35 35 35 35 107 107 107 107 107 56 56 56
 217 217 217 217 50 50 215 215 215 215 215 215 245 245 245 4 35 35 35 35
 35 107 107 107 107 107 56 56 56 217 217 217 59 59 50 50 215 215 215 215
 245 245 245 245 10 10 35 35 35 35 46 107 107 107 107 56 56 56 217 217
 59 59 59 59 50 50 245 245 245 245 245 245 245 10 10 10 10 10 170 170
 170 80 80 56 56 56 56 217 59 59 59 59 59 50 245 245 245 245 245 245
 245 245 10 10 10 10 10 170 170 170 80 239 56 56 69 69 69 59 59 59
 59 59 59 174 245 245 245 245 245 245 245 10 10 10 10 170 170 170 170 170
 94 94 69 69 69 69 26 26 59 59 59 174 174 245 245 245 245 245 245 245
 10 10 10 10 170 170 170 170 94 94 94 94 69 69 26 26 26 26 26 174
 174 174 174 245 245 245 245 2 2 2 10 10 10 170 170 170 94 94 94 94
 94 94 94 26 26 26 26 26 174 174 174 174 245 245 245 245 2 2 2 193
 193 193 193 193 236 94 94 94 94 94 94 94 26 26 26 61 61 61 174 174
 16 16 16 187 187 2 2 2 193 193 193 193 193 193 94 94 94 94 94 94
 94 61 61 61 61 61 61 61 16 16 16 16 16 2 2 2 2 193 193 9
 193 193 193 94 94 94 94 94 94 94 61 61 61 61 61 126 126 16 16 16
 16 16 2 2 2 2 193 193 193 193 193 193 94 94 94 94 94 94 94 101
 101 61 126 126 126 126 16 16 16 16 16 2 2 2 2 2 193 193 193 193
 193 25 25 94 94 94 243 27 101 101 101 126 126 126 126 126 16 16 16 16
 2 108 108 108 108 193 193 193 193 25 25 25 25 25 25 243 27 27 27 27
 126 126 126 126 126 16 16 16 16 108 108 108 108 108 45 45 190 190 190 25
 25 25 25 25 27 27 27 27 27 169 169 169 169 38 38 38 38 38 108 108
 108 108 108 45 45 190 190 190 25 25 25 25 25 27 27 27 27 27 169 169
 169 169 38 38 38 38 38 38 108 108 108 45 45 45 190 190 190 190 25 25
 25 188 188 188 27 27 27 169 169 169 169 38 38 38 38 38 38 43 43 15
 15 45 45 190 190 190 190 25 25 25 188 188 188 188 188 188 169 169 169 169
 38 38 38 38 38 38 43 43 43 15 15 15 190 190 190 190 37 25 188 188
 188 188 188 188 188 169 169 169 169 38 38 38 38 38 43 43 43 43 15 15
 15 15 190 90 90 90 90 188 188 188 188 188 188 188 169 169 169 169 38 68
 68 68 68 43 43 43 15 15 15 15 15 90 90 90 90 90 90 188 188 188
 188 188 188 188 169 169 169 68 68 68 68 68 43 112 43 15 15 15 15 15
 90 90 90 90 90 31 99 99 99 99 36 36 36 36 129 209 68 68 68 68
 68 112 112 112 15 15 15 15 6 6 90 90 90 90 31 99 99 99 99 36
 36 36 36 209 209 209 68 68 68 68 112 112 112 15 15 15 6 6 6 6
 90 90 86 86 31 99 99 36 36 36 36 36 209 209 106 106 106 68 112 112
 112 112 158 158 158 6 6 6 6 31 86 86 86 31 31 36 36 36 36 36
 36 209 209 106 106 106 106 112 112 112 158 158 158 158 158 6 6 6 31 31
 86 86 31 31 36 36 36 36 36 36 209 106 106 106 106 215 215 112 158 158
 158 158 158 158 6 6 6 31 31 107 107 107 107 36 36 36 36 36 146 215
 215 215 215 215 215 215 215 4 4 158 158 158 158 6 6 107 107 107 107 107
 107 107 107 36 36 36 146 146 215 215 215 215 215 215 215 215 4 4 4 158
 158 158 35 107 107 107 107 107 107 107 56 56 56 217 217 217 146 168 168 168
 215 215 215 215 215 4 4 4 35 35 35 35 35 107 107 107 107 107 56 56
 56 217 217 217 217 217 168 168 168 168 215 215 215 215 245 4 4 35 35 35
 35 35 107 107 107 107 107 56 56 56 217 217 217 59 59 59 168 215 215 215
 215 245 245 245 245 10 10 10 10 35 35 107 107 107 107 107 56 56 56 217
 217 59 59 59 59 59 215 215 245 245 245 245 245 245 10 10 10 10 10 170
 170 239 239 239 56 56 56 56 217 59 59 59 59 59 59 245 245 245 245 245
 245 245 245 10 10 10 10 10 170 170 239 239 239 239 56 69 69 69 59 59
 59 59 59 59 245 245 245 245 245 245 245 245 10 10 10 10 10 170 170 239
 239 239 94 94 69 69 69 26 26 59 59 59 174 174 245 245 245 245 245 245
 245 10 10 10 10 13 170 170 170 94 94 94 94 69 69 69 26 26 26 26
 26 174 174 174 245 245 245 245 2 2 2 10 10 10 13 170 170 94 94 94
 94 94 94 69 26 26 26 26 26 26 174 174 174 16 245 245 245 2 2 2
 193 193 193 193 193 193 94 94 94 94 94 94 94 26 26 26 26 26 61 174
 16 16 16 16 16 187 2 2 2 193 193 193 193 193 193 94 94 94 94 94
 94 94 94 26 26 26 61 61 16 16 16 16 16 16 2 2 2 2 193 193
 193 193 193 193 94 94 94 94 94 94 94 101 101 101 61 61 126 126 16 16
 16 16 16 2 2 2 2 193 193 193 193 193 193 94 94 94 94 94 94 101
 101 101 101 101 126 126 126 16 16 16 16 16 2 2 2 2 193 193 193 193
 193 193 25 25 25 25 94 94 101 101 101 101 101 126 126 126 126 16 16 16
 16 2 108 108 108 108 193 193 193 193 25 25 25 25 25 25 27 27 27 27
 101 101 126 126 169 169 16 16 16 108 108 108 108 108 108 45 45 45 45 25
 25 25 25 25 25 27 27 27 27 27 169 169 169 169 169 38 38 38 38 108
 108 108 108 108 45 45 45 45 25 25 25 25 25 25 27 27 27 27 27 169
 169 169 169 38 38 38 38 38 108 108 108 108 45 45 45 45 45 190 25 25
 25 25 25 188 188 27 27 169 169 169 169 169 38 38 38 38 38 38 108 108
 108 45 45 45 45 45 190 25 25 25 25 188 188 188 188 188 169 169 169 169
 169 38 38 38 38 38 38 43 43 43 15 15 45 45 45 190 25 25 25 25
 188 188 188 188 188 188 169 169 169 169 38 38 38 38 38 38 43 43 43 15
 15 15 45 45 90 90 90 90 188 188 188 188 188 188 188 169 169 169 169 38
 38 38 38 38 43 43 43 15 15 15 15 15 90 90 90 90 90 90 188 188
 188 188 188 188 169 169 169 169 68 68 68 68 68 43 112 112 15 15 15 15
 15 90 90 90 90 90 90 99 99 99 99 99 99 99 129 129 209 68 68 68
 68 112 112 112 112 15 15 15 15 6 6 90 90 90 90 31 99 99 99 99
 99 36 36 129 209 209 209 209 68 68 112 112 112 112 112 15 15 6 6 6
 6 90 90 86 86 99 99 99 99 99 36 36 209 209 209 209 209 209 68 112
 112 112 112 158 158 158 6 6 6 6 6 86 86 86 86 99 99 99 36 36
 36 146 209 209 209 209 209 106 112 112 112 158 158 158 158 39 6 6 6 6
 86 86 86 86 31 36 36 36 36 146 146 209 209 209 209 215 215 215 112 158
 158 158 158 158 158 6 6 6 6 107 107 107 107 107 36 36 36 146 146 146
 146 209 215 215 215 215 215 215 4 4 158 158 158 158 6 6 6 107 107 107
 107 107 107 107 36 217 146 146 146 146 215 215 215 215 215 215 215 4 4 4
 158 158 158 35 107 107 107 107 107 107 107 107 56 217 217 217 146 146 146 168
 168 168 215 215 215 215 4 4 4 158 35 35 35 107 107 107 107 107 107 107
 56 56 217 217 217 20 20 20 168 168 168 215 215 215 215 245 4 4 10 35
 35 35 35 107 107 107 107 107 56 56 56 217 217 217 59 59 59 168 168 215
 215 215 215 245 245 245 10 10 10 10 10 10 239 239 239 107 107 56 56 56
 217 217 59 59 59 59 59 168 215 215 245 245 245 245 245 10 10 10 10 10
 34 239 239 239 239 239 56 56 69 217 59 59 59 59 59 59 245 245 245 245
 245 245 245 245 10 10 10 10 13 34 239 239 239 239 239 69 69 69 69 59
 59 59 59 59 59 245 245 245 245 245 245 245 10 10 10 10 13 13 34 239
 239 239 239 94 69 69 69 69 69 26 59 59 59 59 179 179 245 245 245 245
 245 10 10 10 13 13 13 34 34 239 239 94 94 94 69 69 69 26 26 26
 26 26 79 179 179 179 245 245 245 2 2 2 10 13 13 13 34 34 94 94
 94 94 94 94 69 26 26 26 26 26 26 79 179 16 16 16 179 245 2 2
 2 193 193 193 193 193 94 94 94 94 94 94 94 94 26 26 26 26 26 26
 79 16 16 16 16 16 16 2 2 2 193 193 193 193 193 193 94 94 94 94
 94 94 94 94 26 26 26 79 79 79 16 16 16 16 16 2 2 2 2 193
 193 193 193 193 193 94 94 94 94 94 94 180 101 101 101 101 101 79 79 16
 16 16 16 16 2 2 2 2 193 193 193 193 193 193 94 94 94 94 94 94
 101 101 101 101 101 126 126 126 110 16 16 16 16 2 108 108 108 193 193 193
 193 193 25 25 25 25 25 25 94 101 101 101 101 101 126 126 110 110 110 110
 110 108 108 108 108 108 108 193 193 193 25 25 25 25 25 25 25 25 27 101
 101 101 101 169 169 169 110 110 110 110 110 108 108 108 108 108 45 45 45 45
 25 25 25 25 25 25 25 27 27 27 27 169 169 169 169 110 38 38 38 38
 108 108 108 108 108 45 45 45 45 25 25 25 25 25 25 25 27 27 27 27
 169 169 169 169 38 38 38 38 38 108 108 108 108 45 45 45 45 45 25 25
 25 25 25 25 188 188 27 27 169 169 169 169 169 38 38 38 38 38 38 176
 176 176 45 45 45 45 45 45 25 25 25 25 188 188 188 188 188 169 169 169
 169 169 38 38 38 38 38 38 176 176 176 15 45 45 45 45 45 25 25 25
 203 188 188 188 188 188 169 169 169 169 169 169 38 38 38 38 38 176 176 176
 15 15 15 45 45 220 90 90 203 203 203 188 188 188 188 188 169 169 169 169
 169 38 38 38 38 43 112 176 15 15 15 15 15 90 90 90 90 203 203 203
 203 99 99 99 99 169 169 129 169 169 68 68 68 112 112 112 112 15 15 15
 15 15 90 90 90 90 90 203 99 99 99 99 99 99 129 129 129 129 209 68
 68 68 112 112 112 112 112 15 15 15 6 6 90 90 90 90 203 99 99 99
 99 99 99 129 129 129 209 209 209 209 177 112 112 112 112 112 15 15 6 6
 6 6 90 90 86 86 99 99 99 99 99 99 129 129 209 209 209 209 209 177
 112 112 112 112 158 158 39 39 39 6 6 122 122 86 86 99 99 99 99 99
 36 146 146 209 209 209 209 209 177 177 112 112 158 158 158 39 39 39 6 6
 122 122 86 86 99 99 99 99 36 146 146 146 146 209 209 209 209 177 177 177
 158 158 158 158 39 39 39 6 6 122 107 107 107 107 107 99 36 146 146 146
 146 146 209 209 215 215 215 215 175 4 4 158 158 158 39 39 6 6 107 107
 107 107 107 107 107 146 146 146 146 146 146 146 168 215 215 215 175 175 4 4
 4 158 158 39 39 107 107 107 107 107 107 107 107 56 20 20 20 146 146 146
 168 168 168 215 215 215 175 4 4 4 158 158 35 35 107 107 107 107 107 107
 107 56 56 217 20 20 20 20 20 184 168 168 215 215 215 215 245 4 4 10
 10 10 35 107 107 107 107 107 107 56 56 56 217 20 20 20 20 20 184 184
 215 215 215 215 245 245 245 10 10 10 10 10 239 239 239 239 239 107 56 56
 56 217 20 20 20 20 20 184 184 184 215 215 245 245 245 245 10 10 10 13
 34 34 239 239 239 239 239 211 69 69 20 20 59 59 59 59 184 184 184 245
 245 245 245 245 232 232 13 13 13 34 34 239 239 239 239 239 239 69 69 69
 59 59 59 59 59 59 179 179 179 179 245 245 245 232 232 232 13 13 13 34
 239 239 239 239 239 69 69 69 69 69 26 59 59 79 79 179 179 179 179 179
 245 232 232 232 232 13 13 13 34 34 239 239 239 94 94 69 69 69 26 26
 26 26 79 79 179 179 179 179 179 179 2 232 232 232 13 13 34 34 34 239
 94 94 94 94 94 69 69 26 26 26 26 79 79 179 179 179 179 179 179 2
 2 2 193 193 193 193 34 34 94 94 94 94 94 94 94 26 26 26 26 26
 79 79 179 179 179 179 179 179 47 47 47 47 193 193 193 193 193 94 94 94
 94 94 180 180 180 180 101 79 79 79 79 79 179 179 179 179 47 47 47 47
 193 193 193 193 193 193 94 94 94 94 94 180 180 180 180 101 101 79 79 79
 79 179 179 179 179 47 47 47 47 193 193 193 193 193 226 25 25 94 94 180
 180 180 180 101 101 101 101 79 79 110 110 110 16 47 47 108 108 108 108 193
 193 193 226 226 25 25 25 25 25 180 180 101 101 101 101 101 110 110 110 110
 110 110 110 108 108 108 108 108 111 111 111 226 226 25 25 25 25 25 25 101
 101 101 101 101 169 169 110 110 110 110 110 110 108 108 108 108 108 111 45 45
 226 226 25 25 25 25 25 25 27 27 101 101 169 169 169 110 110 110 110 38
 38 108 108 108 108 108 45 45 45 45 226 25 25 25 25 25 25 27 27 183
 183 169 169 169 169 110 38 38 38 38 108 108 108 108 45 45 45 45 45 226
 25 25 25 25 25 188 183 183 183 183 169 169 169 169 38 38 38 38 38 38
 176 176 176 45 45 45 45 45 220 25 25 25 25 25 188 183 183 183 183 169
 169 169 169 38 38 38 38 38 38 176 176 176 176 45 45 45 220 220 220 25
 203 203 203 203 203 183 183 183 169 169 169 169 169 38 38 38 38 38 176 176
 176 176 165 15 220 220 220 220 203 203 203 203 203 203 188 188 183 169 169 169
 169 169 38 38 38 38 38 176 176 176 165 165 15 220 220 220 90 90 203 203
 203 203 99 99 99 99 129 129 129 129 129 38 68 68 112 112 112 112 112 165
 165 15 15 90 90 90 90 203 203 203 99 99 99 99 99 129 129 129 129 129
 209 209 177 112 112 112 112 112 15 15 15 6 122 122 122 122 30 203 99 99
 99 99 99 99 129 129 129 129 209 209 209 177 177 112 112 112 112 58 39 39
 6 122 122 122 122 122 203 99 99 99 99 99 99 129 129 129 209 209 209 209
 177 177 112 112 112 58 58 39 39 39 122 122 122 122 122 86 99 99 99 99
 99 146 146 146 146 209 209 209 209 177 177 177 177 58 58 58 39 39 39 122
 122 122 122 122 122 99 99 99 99 146 146 146 146 146 209 209 209 209 177 177
 177 175 58 58 58 58 39 39 122 122 122 122 122 107 107 84 84 84 146 146
 146 146 146 146 209 209 215 175 175 175 175 58 58 58 58 39 39 39 122 122
 107 107 107 107 107 84 84 146 146 146 146 146 146 119 215 215 175 175 175 175
 4 58 58 58 39 39 39 107 107 107 107 107 107 107 20 20 20 20 146 146
 146 146 184 168 215 175 175 175 71 71 212 58 212 212 39 39 107 107 107 107
 107 107 211 20 20 20 20 20 20 20 184 184 184 215 175 175 175 71 71 212
 212 212 212 34 239 239 107 107 107 211 211 211 211 20 20 20 20 20 20 184
 184 184 184 215 215 175 71 71 232 232 10 13 34 239 239 239 239 239 211 211
 211 211 20 20 20 20 20 20 184 184 184 184 184 221 221 221 232 232 232 232
 13 34 34 239 239 239 239 239 211 211 211 20 20 20 20 20 20 184 184 184
 184 179 221 221 232 232 232 232 232 13 34 34 239 239 239 239 239 211 199 199
 199 20 20 20 20 20 184 179 179 179 179 179 221 232 232 232 232 232 13 34
 34 34 239 239 239 239 199 199 199 199 199 26 20 79 79 79 179 179 179 179
 179 179 232 232 232 232 232 13 34 34 34 239 239 239 94 94 199 199 199 199
 26 79 79 79 79 179 179 179 179 179 179 232 232 232 232 232 232 34 34 34
 239 239 94 94 94 94 199 199 26 26 79 79 79 79 179 179 179 179 179 179
 2 232 232 232 232 232 34 34 34 94 94 94 94 94 94 180 180 26 26 79
 79 79 79 79 179 179 179 179 179 47 47 47 47 47 193 193 193 193 94 94
 94 94 180 180 180 180 180 180 79 79 79 79 79 179 179 179 179 47 47 47
 47 47 193 193 193 193 226 226 94 94 94 180 180 180 180 180 101 79 79 79
 79 79 179 179 179 127 47 47 47 47 47 111 111 193 226 226 226 226 94 94
 180 180 180 180 180 101 101 79 79 79 110 110 110 127 127 47 47 47 47 111
 111 111 111 226 226 226 226 25 25 25 180 180 180 101 101 101 101 110 110 110
 110 110 127 127 127 108 108 108 111 111 111 111 226 226 226 226 25 25 25 180
 101 101 101 101 101 169 110 110 110 110 110 110 127 127 108 108 108 111 111 111
 111 226 226 226 226 25 25 25 25 183 183 183 183 169 169 169 110 110 110 110
 110 38 108 108 108 108 111 111 111 45 226 226 226 226 25 25 25 183 183 183
 183 183 169 169 169 110 110 110 110 38 38 38 108 108 108 111 45 45 45 220
 226 226 226 25 25 25 183 183 183 183 183 169 169 169 169 38 38 38 38 38
 38 176 176 176 45 45 45 220 220 220 220 226 25 25 203 183 183 183 183 183
 183 169 169 169 38 38 38 38 38 38 176 176 176 176 165 220 220 220 220 220
 220 203 203 203 203 183 183 183 183 183 169 169 169 169 38 38 38 38 38 176
 176 176 165 165 220 220 220 220 220 220 203 203 203 203 203 183 183 183 183 169
 169 169 169 38 38 38 38 38 176 176 176 165 165 220 220 220 220 220 30 203
 203 203 203 203 99 99 95 129 129 129 129 129 73 73 73 73 112 112 214 165
 165 165 165 220 220 220 30 30 30 203 203 203 99 99 99 99 129 129 129 129
 129 129 73 177 177 112 112 214 214 165 165 165 122 122 122 122 30 30 30 203
 99 99 99 99 99 129 129 129 129 129 209 177 177 177 177 177 214 214 214 58
 39 122 122 122 122 122 30 30 30 99 99 99 99 129 129 129 129 129 209 209
 177 177 177 177 177 58 58 58 58 39 39 122 122 122 122 122 30 30 99 99
 84 84 84 146 146 146 209 209 209 177 177 177 177 177 58 58 58 58 39 39
 122 122 122 122 122 30 30 84 84 84 84 84 146 146 146 146 119 209 177 177
 177 177 175 58 58 58 58 39 39 122 122 122 122 122 107 84 84 84 84 84