# vtk DataFile Version 2.0
Data set from ImportExport Version 6.5.171.b0b162591
ASCII

DATASET RECTILINEAR_GRID
DIMENSIONS 30 30 30
X_COORDINATES 30 float
-1.250000 1.250000 3.750000 6.250000 8.750000 11.250000 13.750000 16.250000 18.750000 21.250000 23.750000 26.250000 28.750000 31.250000 33.750000 36.250000 38.750000 41.250000 43.750000 46.250000 48.750000 
51.250000 53.750000 56.250000 58.750000 61.250000 63.750000 66.250000 68.750000 71.250000 
Y_COORDINATES 30 float
-1.250000 1.250000 3.750000 6.250000 8.750000 11.250000 13.750000 16.250000 18.750000 21.250000 23.750000 26.250000 28.750000 31.250000 33.750000 36.250000 38.750000 41.250000 43.750000 46.250000 48.750000 
51.250000 53.750000 56.250000 58.750000 61.250000 63.750000 66.250000 68.750000 71.250000 
Z_COORDINATES 30 float
-1.250000 1.250000 3.750000 6.250000 8.750000 11.250000 13.750000 16.250000 18.750000 21.250000 23.750000 26.250000 28.750000 31.250000 33.750000 36.250000 38.750000 41.250000 43.750000 46.250000 48.750000 
51.250000 53.750000 56.250000 58.750000 61.250000 63.750000 66.250000 68.750000 71.250000 
CELL_DATA 24389
SCALARS FeatureIds int 1
LOOKUP_TABLE default
 6 6 6 6 6 32 32 32 32 32 168 168 168 168 41 41 41 108 108 108
 108 187 187 187 187 187 187 187 187 6 220 220 220 220 220 32 32 32 32 168
 168 168 168 41 41 41 108 108 108 108 108 187 187 187 187 187 187 187 220 220
 220 220 220 220 32 32 32 32 168 168 168 41 41 41 41 108 108 108 108 108
 187 187 187 187 187 187 187 220 220 220 220 220 220 82 82 32 32 168 168 168
 41 41 41 41 108 108 108 108 108 187 187 187 187 187 187 187 220 220 220 220
 220 82 82 82 240 240 240 168 41 41 41 41 41 108 108 108 108 108 108 187
 187 187 187 187 187 60 60 60 82 82 82 82 82 240 240 240 38 38 38 41
 41 41 108 108 108 108 108 79 187 187 187 187 27 60 60 60 60 82 82 82
 82 82 240 240 38 38 38 38 38 41 41 108 108 79 79 79 79 79 27 27
 27 27 60 60 60 60 60 82 82 82 82 240 38 38 38 38 38 38 38 238
 79 79 79 79 79 79 79 27 27 27 27 60 60 60 60 60 82 82 82 82
 38 38 38 38 38 38 38 238 238 95 79 79 79 79 79 79 27 27 27 27
 60 60 60 60 60 235 136 136 136 136 38 38 38 38 38 38 95 95 95 95
 79 79 79 79 79 27 27 27 27 60 43 43 43 43 235 136 136 136 136 38
 38 38 23 23 23 95 95 95 95 95 79 79 79 79 37 37 93 93 93 93
 43 43 235 235 136 136 136 136 1 1 23 23 23 23 95 95 95 95 95 84
 84 79 37 37 37 93 93 93 93 43 43 235 1 1 1 1 1 1 1 23
 23 23 95 95 95 95 95 84 84 84 84 37 37 37 37 93 93 93 93 93
 1 1 1 1 1 1 1 1 1 23 23 45 45 112 112 112 84 84 84 84
 37 37 37 37 93 93 93 93 93 1 1 1 1 1 1 1 1 1 45 45
 45 45 112 112 112 84 84 84 84 37 37 37 37 93 93 93 93 93 1 1
 1 1 1 78 78 78 4 4 45 45 45 45 45 45 45 84 84 84 37 37
 37 37 132 132 93 93 78 78 78 78 78 78 78 78 78 4 4 4 4 45
 45 45 45 45 45 84 84 74 74 74 74 132 132 93 191 78 78 78 78 78
 78 78 78 78 4 4 4 4 4 45 45 45 45 45 84 74 74 74 74 74
 74 132 8 191 78 78 78 78 78 78 78 78 78 4 4 4 4 4 4 45
 45 2 2 74 74 74 74 74 74 74 74 8 8 47 47 47 47 47 47 47
 47 47 4 4 4 4 4 4 4 2 118 2 2 74 74 74 74 74 74 8
 8 8 8 47 47 47 47 47 47 47 47 4 133 133 4 4 40 40 118 118
 118 118 155 155 155 155 155 155 8 8 8 8 8 47 47 47 47 47 165 165
 165 133 133 40 40 40 40 118 118 118 118 155 155 155 155 155 155 8 8 8
 8 8 54 47 47 165 165 165 165 165 133 133 40 9 9 40 118 118 118 118
 155 155 155 155 155 8 8 8 8 8 54 54 54 165 165 165 165 165 165 165
 9 9 9 9 9 118 118 246 246 246 155 155 155 155 8 8 8 6 6 6
 54 54 54 165 165 165 165 165 165 9 9 9 9 9 9 246 246 246 246 246
 155 155 8 8 8 6 6 6 6 54 54 54 165 165 165 165 165 178 178 178
 178 178 178 178 246 246 246 246 246 246 155 8 8 6 6 6 6 6 6 54
 54 194 165 165 165 168 168 178 178 178 178 178 178 246 246 246 246 246 187 187
 187 6 6 6 6 6 6 6 54 54 32 32 168 168 168 168 168 178 178 178
 178 197 246 246 246 246 187 187 187 187 6 6 6 6 6 6 6 54 32 32
 32 32 168 168 168 168 168 178 178 197 197 197 197 246 187 187 187 187 187 187
 6 6 6 6 6 6 32 32 32 32 168 168 168 168 168 41 41 197 197 197
 197 197 197 187 187 187 187 187 187 6 6 6 220 220 220 220 32 32 32 168
 168 168 168 168 41 41 197 197 197 197 197 197 187 187 187 187 187 187 187 220
 220 220 220 220 220 220 32 32 168 168 168 168 168 41 41 41 108 108 108 108
 108 187 187 187 187 187 187 187 220 220 220 220 220 220 220 82 32 168 168 168
 168 168 41 41 41 108 108 108 108 108 187 187 187 187 187 187 187 220 220 220
 220 220 220 82 82 240 240 168 168 168 168 41 41 108 108 108 108 108 108 187
 187 187 187 187 187 187 60 60 220 220 220 82 82 82 240 240 240 38 38 38
 41 41 108 108 108 108 108 108 108 187 187 187 187 187 60 60 60 60 60 82
 82 82 82 240 240 38 38 38 38 38 41 108 108 108 79 79 79 79 79 143
 143 143 27 60 60 60 60 60 82 82 82 82 240 38 38 38 38 38 38 238
 238 238 79 79 79 79 79 79 143 143 143 143 60 60 60 60 60 60 82 82
 82 38 38 38 38 38 38 38 238 238 238 238 79 79 79 79 79 79 143 27
 27 60 60 60 60 60 235 235 136 136 136 38 38 38 38 38 238 238 238 238
 95 79 79 79 79 79 79 143 27 93 93 93 43 235 235 235 235 136 136 136
 1 38 38 23 23 95 95 95 95 95 79 79 79 79 79 37 37 93 93 93
 93 43 235 235 235 235 1 1 1 1 1 23 23 23 95 95 95 95 95 95
 84 84 79 37 37 37 93 93 93 93 93 235 235 230 230 1 1 1 1 1
 1 23 23 95 95 95 95 95 84 84 84 84 37 37 37 93 93 93 93 93
 235 230 230 230 1 1 1 1 1 1 45 45 45 45 45 45 45 84 84 84
 84 37 37 37 37 93 93 93 93 230 230 230 1 1 1 1 1 1 1 45
 45 45 45 45 45 45 84 84 84 84 37 37 37 37 93 93 93 93 191 230
 230 1 1 78 78 78 78 78 45 45 45 45 45 45 45 45 84 84 84 37
 37 37 37 37 93 93 191 191 233 233 78 78 78 78 78 78 4 4 4 4
 45 45 45 45 45 45 84 84 74 74 74 74 74 132 191 191 233 233 233 78
 78 78 78 78 78 4 4 4 4 4 45 45 45 45 45 45 74 74 74 74
 74 74 74 8 191 191 233 233 78 78 78 78 78 78 4 4 4 4 4 4
 45 2 2 2 2 74 74 74 74 74 74 74 8 8 191 47 47 47 47 47
 47 47 47 4 4 4 4 4 4 2 2 2 2 2 74 74 74 74 74 74
 74 8 8 8 47 47 47 47 47 47 47 47 4 133 133 133 4 4 2 2
 2 2 2 155 155 155 155 155 155 8 8 8 8 8 47 47 47 47 47 47
 165 4 133 133 133 4 4 40 2 2 2 2 155 155 155 155 155 8 8 8
 8 8 8 54 54 47 47 165 165 165 165 133 133 9 9 9 9 118 118 118
 246 155 155 155 155 155 8 8 8 8 8 54 54 54 54 165 165 165 165 165
 178 178 9 9 9 178 178 246 246 246 246 155 155 155 8 8 8 8 8 6
 54 54 54 54 194 194 165 165 165 178 178 9 9 9 178 178 246 246 246 246
 246 155 8 8 8 8 6 6 6 54 54 54 54 194 194 165 165 165 178 178
 178 178 178 178 178 246 246 246 246 246 246 8 8 8 6 6 6 6 6 54
 54 54 194 194 194 168 168 178 178 178 178 178 178 178 246 246 246 246 246 246
 187 6 6 6 6 6 6 6 54 54 54 194 194 168 168 168 168 178 178 178
 178 178 197 246 246 246 246 187 187 187 187 6 6 6 6 6 6 6 54 54
 32 32 168 168 168 168 168 178 178 178 197 197 197 197 246 187 187 187 187 187
 187 6 6 6 6 6 6 6 32 32 32 168 168 168 168 168 168 168 197 197
 197 197 197 197 187 187 187 187 187 157 157 157 6 220 220 220 220 32 32 32
 168 168 168 168 168 168 41 197 197 197 197 197 197 187 187 187 187 187 157 157
 157 220 220 220 220 220 220 32 32 168 168 168 168 168 41 41 108 108 197 197
 197 197 187 187 187 187 187 157 157 220 220 220 220 220 220 220 82 168 168 168
 168 168 168 41 41 108 108 108 108 108 108 187 187 187 187 187 187 187 220 220
 220 220 220 220 82 82 168 168 168 168 168 168 41 41 108 108 108 108 108 108
 108 187 187 187 187 187 187 60 60 220 220 220 220 82 82 240 240 168 168 168
 168 41 41 108 108 108 108 108 108 79 130 130 130 130 130 60 60 60 60 60
 82 82 82 82 240 240 38 38 38 38 15 238 238 238 108 79 79 79 79 79
 143 143 143 143 60 60 60 60 60 60 82 82 217 217 38 38 38 38 38 15
 238 238 238 238 79 79 79 79 79 143 143 143 143 60 60 60 60 60 235 235
 217 217 217 38 38 38 38 38 238 238 238 238 238 79 79 79 79 79 143 143
 143 143 60 60 60 60 235 235 235 235 217 217 217 38 38 38 238 238 238 238
 238 238 79 79 79 79 79 192 143 143 93 93 93 235 235 235 235 235 235 235
 1 1 1 127 127 23 95 95 95 95 95 79 79 79 79 192 192 37 93 93
 93 93 235 235 235 235 235 1 1 1 1 1 127 127 127 95 95 95 95 95
 95 79 79 192 192 37 37 93 93 93 93 93 235 235 230 230 1 1 1 1
 1 127 127 95 95 95 95 95 95 163 84 84 84 37 37 37 93 93 93 93
 93 235 230 230 230 1 1 1 1 1 127 45 45 45 45 45 45 163 163 84
 84 84 37 37 37 37 93 93 93 93 230 230 230 230 1 1 1 1 1 1
 45 45 45 45 45 45 45 163 84 84 84 37 37 37 37 93 93 93 191 191
 230 230 230 1 78 78 78 78 4 45 45 45 45 45 45 45 45 45 84 84
 37 37 37 37 93 93 191 191 191 233 233 233 78 78 78 78 78 4 4 4
 45 45 45 45 45 45 45 84 84 74 74 74 74 74 93 191 191 233 233 233
 233 78 78 78 78 78 4 4 4 4 4 45 45 45 45 45 45 74 74 74
 74 74 74 74 191 191 191 233 233 233 78 78 78 78 78 4 4 4 4 4
 4 202 2 2 2 2 74 74 74 74 74 74 74 8 8 191 191 233 47 47
 47 47 47 47 4 4 4 4 4 4 2 2 2 2 2 176 74 74 74 74
 74 8 8 8 8 8 47 47 47 47 47 47 47 4 4 133 4 4 4 2
 2 2 2 2 176 155 155 155 155 8 8 8 8 8 8 47 47 47 47 47
 47 47 4 133 133 133 4 4 2 2 2 2 2 176 155 155 155 155 8 8
 8 8 8 8 54 54 54 47 47 165 165 165 133 133 9 9 9 9 2 2
 2 176 176 176 155 155 8 8 8 8 8 8 54 54 54 54 194 194 194 165
 165 178 178 9 9 9 178 178 246 246 246 246 176 155 8 8 8 8 8 8
 8 54 54 54 54 194 194 194 194 178 178 178 178 178 178 178 178 246 246 246
 246 246 246 8 8 8 8 6 6 6 54 54 54 54 194 194 194 194 178 178
 178 178 178 178 178 246 246 246 246 246 246 246 8 8 8 8 6 6 6 54
 54 54 54 194 194 194 194 168 178 178 178 178 178 178 246 246 246 246 246 246
 246 187 8 6 6 6 6 6 6 54 54 54 194 194 168 168 168 178 178 178
 178 178 178 178 246 246 246 246 187 187 187 187 6 6 6 6 6 6 54 54
 54 194 168 168 168 168 168 168 178 178 178 197 197 197 197 246 187 187 187 187
 187 187 6 157 6 6 6 6 6 32 168 168 168 168 168 168 168 168 46 197
 197 197 197 197 197 187 187 187 187 157 157 157 157 6 220 220 220 220 32 32
 168 168 168 168 168 168 168 46 197 197 197 197 197 197 187 187 187 187 157 157
 157 157 220 220 220 220 220 220 168 168 168 168 168 168 168 168 46 197 197 197
 197 197 197 187 187 187 187 157 157 157 157 220 220 220 220 220 220 99 99 168
 168 168 168 168 168 46 108 108 108 197 197 197 197 187 187 187 187 157 157 220
 220 220 220 220 220 220 99 99 99 168 168 168 168 168 46 108 108 108 108 108
 108 130 130 130 130 130 130 157 60 220 220 220 220 220 148 99 99 99 99 168
 168 168 15 15 108 108 108 108 108 79 130 130 130 130 130 130 130 60 60 60
 60 220 148 148 217 99 99 38 38 15 15 15 15 238 238 108 108 79 79 79
 130 143 143 143 130 60 60 60 60 60 235 235 217 217 217 217 38 38 15 15
 15 15 238 238 238 79 79 79 79 143 143 143 143 143 60 60 60 60 235 235
 235 217 217 217 217 38 127 15 15 15 238 238 238 238 79 79 79 79 79 143
 143 143 143 60 60 60 235 235 235 235 217 217 217 217 127 127 127 15 15 238
 238 238 238 238 79 79 192 192 192 143 143 143 93 93 235 235 235 235 235 235
 217 217 217 127 127 127 127 238 238 238 238 238 238 79 79 192 192 192 192 93
 93 93 93 235 235 235 235 235 235 1 1 1 127 127 127 127 95 95 95 95
 95 163 163 192 192 192 192 37 93 93 93 93 17 235 235 230 230 230 1 1
 188 188 127 127 127 45 45 45 45 163 163 163 84 192 192 37 37 93 93 93
 93 17 17 230 230 230 230 1 1 188 188 188 127 45 45 45 45 45 163 163
 163 84 84 37 37 37 37 93 93 93 17 17 230 230 230 230 218 218 188 188
 188 188 45 45 45 45 45 45 163 163 84 84 37 37 37 37 93 93 93 191
 191 191 230 230 218 218 218 218 188 188 45 45 45 45 45 45 45 45 45 84
 84 37 37 37 37 93 93 191 191 191 191 233 233 233 218 78 78 78 4 4
 4 45 45 45 45 45 45 45 45 84 74 74 74 74 74 93 191 191 191 191
 233 233 233 78 78 78 78 4 4 4 4 202 202 202 202 45 2 2 74 74
 74 74 74 74 74 191 191 191 191 233 233 233 47 78 78 4 4 4 4 4
 4 202 202 2 2 2 2 176 74 74 74 74 74 74 8 191 191 191 191 47
 47 47 47 47 4 4 4 4 4 4 4 202 2 2 2 2 176 176 176 74
 74 8 8 8 8 8 191 191 229 229 229 229 229 4 4 4 4 4 4 4
 2 2 2 2 2 176 176 176 176 8 8 8 8 8 8 8 54 54 229 229
 229 229 4 4 4 4 4 4 4 2 2 2 2 176 176 176 176 176 8 8
 8 8 8 8 54 54 54 54 54 194 194 4 4 4 178 178 178 178 178 2
 2 176 176 176 176 176 8 8 8 8 8 8 8 54 54 54 54 54 194 194
 194 178 178 178 178 178 178 178 178 246 246 246 246 176 176 8 8 8 8 8
 8 8 54 54 54 54 194 194 194 194 178 178 178 178 178 178 178 246 246 246
 246 246 246 176 8 8 8 8 8 8 54 54 54 54 54 194 194 194 194 178
 178 178 178 178 178 178 246 246 246 246 246 246 246 8 8 8 8 6 6 6
 54 54 54 54 194 194 194 194 178 178 178 178 178 178 178 246 246 246 246 246
 246 246 8 8 8 6 6 6 6 54 54 54 54 194 194 194 168 168 178 178
 178 178 178 178 246 246 246 246 246 246 187 187 187 6 6 6 6 6 6 54
 54 54 194 194 168 168 168 168 178 178 178 178 197 197 197 197 246 246 187 187
 187 187 157 6 157 6 6 6 6 148 148 168 168 168 168 168 168 168 46 46
 46 197 197 197 197 197 197 187 187 187 157 157 157 157 157 220 220 220 148 148
 99 168 168 168 168 168 168 46 46 46 197 197 197 197 197 187 187 187 187 157
 157 157 157 157 220 220 220 148 148 99 99 99 168 39 39 168 46 46 46 197
 197 197 197 197 197 187 187 187 157 157 157 157 220 220 148 148 148 148 99 99
 99 99 39 168 168 46 46 46 197 197 197 197 197 197 130 130 130 130 157 157
 231 220 220 148 148 148 148 99 99 99 99 99 168 168 15 46 161 161 161 108
 108 197 130 130 130 130 130 130 157 13 220 148 148 148 148 148 99 99 99 99
 99 168 15 15 15 161 161 161 161 161 79 130 130 130 130 130 130 130 60 60
 148 148 148 148 148 217 99 99 99 99 15 15 15 15 161 161 161 161 161 79
 79 130 130 130 130 130 130 60 60 60 148 148 217 217 217 217 217 38 15 15
 15 15 15 138 138 161 161 79 79 79 130 143 143 143 143 143 60 60 235 235
 235 217 217 217 217 217 127 127 15 15 15 15 138 138 138 138 79 79 79 192
 143 143 143 143 13 60 235 235 235 235 235 217 217 217 217 127 127 127 15 15
 15 138 138 138 138 79 192 192 192 192 143 143 143 93 235 235 235 235 235 235
 217 217 217 217 127 127 127 127 15 138 151 151 138 138 79 192 192 192 192 192
 93 93 93 17 17 235 235 235 235 235 217 188 188 127 127 127 127 15 151 151
 151 138 163 163 192 192 192 192 192 93 93 93 17 17 17 235 235 230 230 230
 188 188 188 127 127 127 45 45 45 45 163 163 163 192 192 192 192 37 93 93
 93 17 17 17 230 230 230 230 218 188 188 188 188 127 45 45 45 45 45 163
 163 163 163 84 37 37 37 37 93 17 17 17 17 230 230 230 218 218 218 188
 188 188 188 45 45 45 45 45 45 163 163 163 84 37 37 37 37 93 17 17
 17 191 191 191 218 218 218 218 218 188 188 188 45 45 45 45 45 45 45 45
 45 84 37 37 37 37 93 17 17 191 191 191 191 233 218 218 218 218 188 188
 4 4 45 45 45 45 45 45 45 45 45 74 74 74 74 74 17 191 191 191
 191 191 233 233 229 229 229 229 4 4 4 4 202 202 202 202 45 2 2 176
 74 74 74 74 74 74 191 191 191 191 191 233 229 229 229 229 229 4 4 4
 4 202 202 202 202 2 2 2 176 176 176 176 74 223 223 191 191 191 191 191
 229 229 229 229 229 229 4 4 4 4 4 202 202 2 2 2 2 176 176 176
 176 176 8 8 8 106 106 106 191 229 229 229 229 229 229 4 4 4 4 4
 4 2 2 2 2 176 176 176 176 176 176 8 8 8 8 106 106 54 229 229
 229 229 229 229 4 4 4 4 4 4 2 2 2 176 176 176 176 176 176 8
 8 8 8 8 8 8 54 54 54 54 229 229 229 4 4 178 178 178 178 178
 2 2 176 176 176 176 176 176 8 8 8 8 8 8 54 54 54 54 54 194
 194 194 227 178 178 178 178 178 178 178 246 246 176 176 176 176 176 8 8 8
 8 8 8 54 54 54 54 194 194 194 194 227 178 178 178 178 178 178 246 246
 246 246 246 246 176 8 8 8 8 8 8 54 54 54 54 54 194 194 194 194
 227 178 178 178 178 178 178 246 246 246 246 246 246 246 8 8 8 8 6 6
 54 54 54 54 54 194 194 194 194 227 178 178 178 178 178 178 246 246 246 246
 246 246 246 8 8 8 8 6 6 6 54 54 54 54 194 194 194 194 168 178
 178 178 178 178 178 178 246 246 246 246 246 187 187 58 58 6 6 6 6 6
 54 54 54 194 194 168 168 168 168 178 178 178 178 197 197 197 197 246 246 187
 187 187 187 157 6 231 231 231 232 232 148 148 39 39 39 39 39 39 39 46
 46 46 197 197 197 197 197 197 187 187 187 157 157 157 231 231 231 231 148 148
 148 99 99 39 39 39 39 39 46 46 46 46 197 197 197 197 197 187 187 187
 157 157 157 231 231 231 231 148 148 148 99 99 99 39 39 39 39 46 46 46
 46 197 197 197 197 197 130 130 130 157 157 157 231 231 231 148 148 148 148 99
 99 99 99 39 39 39 46 46 46 46 197 197 197 197 130 130 130 130 130 130
 157 231 231 231 148 148 148 148 99 99 99 99 99 39 39 150 46 161 161 161
 161 197 197 130 130 130 130 130 130 130 13 231 148 148 148 148 148 99 99 99
 99 99 150 150 150 150 161 161 161 161 161 130 130 130 130 130 130 130 13 13
 13 148 148 148 148 148 148 99 99 99 99 150 150 150 150 161 161 161 161 161
 161 130 130 130 130 130 130 13 13 13 148 148 148 148 217 217 217 137 137 15
 15 15 15 15 161 161 161 161 161 79 79 130 130 130 130 130 13 13 13 235
 235 64 64 217 217 217 137 137 15 15 15 15 15 138 138 151 161 161 192 192
 192 130 130 130 130 13 13 235 235 235 235 235 217 217 217 217 127 127 127 15
 15 15 138 138 138 138 138 192 192 192 192 69 143 143 13 17 235 235 235 235
 235 217 217 217 217 127 127 127 127 15 138 151 138 138 138 138 192 192 192 69
 69 69 93 93 17 17 235 235 235 235 217 217 188 188 127 127 127 127 15 151
 151 138 138 138 163 192 192 69 69 69 87 93 93 17 17 17 235 235 230 230
 188 188 188 188 127 127 127 127 151 151 138 163 163 163 69 69 69 69 87 87
 87 17 17 17 17 17 230 230 230 218 188 188 188 188 127 127 45 45 45 45
 45 163 163 69 69 69 87 87 87 87 17 17 17 17 17 230 218 218 218 218
 188 188 188 127 45 45 45 45 45 45 45 163 69 69 87 87 87 87 17 17
 17 17 191 191 191 218 218 218 218 218 188 188 127 45 45 45 45 45 45 45
 45 45 69 87 87 87 87 17 17 171 191 191 191 191 218 218 218 218 218 188
 103 103 103 45 45 45 45 45 45 45 45 45 176 87 74 223 223 223 171 191
 191 191 191 191 229 229 229 229 229 103 103 103 103 202 202 202 202 45 45 176
 176 176 176 74 223 223 223 171 191 191 191 191 191 229 229 229 229 229 103 103
 103 103 184 202 202 202 2 2 176 176 176 176 176 223 223 223 171 191 191 191
 191 229 229 229 229 229 229 103 103 103 103 184 184 202 2 2 2 176 176 176
 176 176 223 223 223 106 106 106 106 191 229 229 229 229 229 229 103 103 103 103
 184 184 184 2 2 176 176 176 176 176 176 176 223 223 106 106 106 3 3 229
 229 229 229 229 229 103 103 103 103 184 184 184 2 2 176 176 176 176 176 176
 176 8 8 8 106 106 3 88 88 88 229 229 229 227 103 103 243 243 243 243
 243 243 176 176 176 176 176 176 176 8 8 8 8 8 8 88 88 88 88 54
 194 194 227 227 227 178 243 243 243 243 243 176 176 176 176 176 176 176 8 8
 8 8 8 8 88 88 88 88 88 194 194 227 227 227 178 178 178 178 178 178
 246 246 246 246 176 176 176 8 8 8 8 8 54 88 88 88 88 88 194 194
 227 227 227 178 178 178 178 178 246 246 246 246 246 246 176 176 8 8 8 8
 8 88 88 88 88 88 88 194 194 227 227 227 178 178 178 178 178 178 246 246
 246 246 246 246 58 58 58 58 58 6 234 234 88 88 88 88 194 194 227 227
 227 178 178 178 178 178 197 246 246 246 246 246 246 58 58 58 58 58 6 234
 234 88 88 88 88 39 39 39 39 39 178 178 178 178 197 197 197 197 246 246
 187 58 58 58 58 58 231 231 231 232 232 232 148 39 39 39 39 39 39 39
 46 46 46 46 197 197 197 197 197 187 187 58 58 58 58 231 231 231 231 148
 148 148 99 99 39 39 39 39 39 46 46 46 46 197 197 197 197 197 187 130
 130 157 157 157 231 231 231 231 148 148 148 99 99 99 39 39 39 39 46 46
 46 46 197 197 197 197 130 130 130 130 130 130 231 231 231 231 231 148 148 148
 99 99 99 99 39 39 39 46 46 46 46 161 197 197 197 130 130 130 130 130
 130 231 231 231 231 148 148 148 148 99 99 99 99 99 39 39 46 150 46 161
 161 161 161 161 130 130 130 130 130 130 231 13 231 148 148 148 148 148 148 99
 99 99 99 150 150 150 150 150 161 161 161 161 161 130 130 130 130 130 130 13
 13 13 148 148 148 148 148 148 99 99 99 150 150 150 150 150 150 161 161 161
 161 161 130 130 130 130 130 13 13 13 13 148 64 64 64 148 137 137 137 137
 150 150 150 150 150 150 161 161 161 161 161 130 130 107 107 107 13 13 13 13
 64 64 64 64 137 137 137 137 137 150 150 15 15 15 150 151 161 161 161 161
 69 107 107 107 107 13 13 13 13 235 64 64 64 137 137 137 137 137 127 127
 15 15 15 138 138 138 138 138 69 69 69 69 69 69 13 13 144 144 235 235
 235 137 137 137 137 137 127 127 127 127 15 138 138 138 138 138 69 69 69 69
 69 69 69 69 13 144 144 144 235 235 235 137 137 137 188 127 127 127 209 209
 138 138 138 138 138 69 69 69 69 69 69 87 87 17 17 17 17 17 235 235
 230 188 188 188 188 127 127 209 209 138 151 138 163 163 69 69 69 69 69 87
 87 87 17 17 17 17 17 230 218 218 188 188 188 188 188 127 209 209 45 7
 7 7 163 69 69 69 69 87 87 87 87 17 17 17 17 17 230 218 218 218
 218 188 188 188 188 45 45 45 7 7 7 7 125 69 69 87 87 87 87 87
 17 17 17 191 191 191 218 218 218 218 218 188 188 188 45 45 7 7 7 7
 7 45 125 125 87 87 87 87 87 17 171 171 191 191 191 191 218 218 218 218
 188 103 103 103 103 7 7 7 7 45 45 125 125 87 87 158 223 223 223 171
 171 191 191 191 191 218 229 229 229 103 103 103 103 103 184 184 202 202 45 45
 176 176 176 158 158 223 223 223 171 171 191 191 191 191 229 229 229 229 229 103
 103 103 103 184 184 184 202 2 2 176 176 176 176 223 223 223 223 223 106 106
 191 191 229 229 229 229 229 229 103 103 103 103 184 184 184 2 2 176 176 176
 176 176 176 223 223 223 106 106 106 3 3 229 229 229 229 229 229 103 103 103
 103 184 184 184 184 2 176 176 176 176 176 176 223 223 223 106 106 106 3 3
 229 229 229 229 229 103 103 103 103 184 184 184 184 184 176 176 176 176 176 176
 176 176 223 106 106 106 106 3 3 88 229 229 229 229 227 103 103 243 243 243
 243 243 243 176 176 176 176 176 176 176 176 8 106 106 106 106 3 88 88 88
 88 194 227 227 227 227 243 243 243 243 243 243 176 176 176 176 176 176 176 8
 8 8 8 8 88 88 88 88 88 88 194 227 227 227 227 243 243 243 243 243
 243 246 246 176 176 176 176 176 8 8 8 8 8 88 88 88 88 88 88 194
 227 227 227 227 227 243 243 243 243 243 246 246 246 246 246 176 58 58 58 8
 58 58 234 234 88 88 88 88 194 227 227 227 227 227 178 178 178 178 178 246
 246 246 246 246 58 58 58 58 58 58 234 234 234 234 88 88 88 194 227 227
 227 227 227 178 178 178 178 197 246 246 246 246 246 58 58 58 58 58 58 58
 234 234 234 88 88 88 39 39 39 39 39 39 46 46 46 46 197 197 197 246
 195 58 58 58 58 58 58 231 232 232 232 232 232 232 39 39 39 39 39 39
 46 46 46 46 46 46 197 146 146 195 195 76 58 58 58 58 231 231 232 232
 232 232 232 99 99 39 39 39 39 39 46 46 46 46 46 197 146 146 146 76
 76 76 76 58 58 231 231 231 232 232 148 148 99 99 99 39 39 39 39 46
 46 46 46 46 146 146 146 146 76 76 76 76 76 231 231 231 231 231 148 148
 148 99 99 99 99 39 39 39 46 46 46 46 146 146 146 146 130 130 76 76
 76 130 231 231 231 231 148 148 148 148 148 99 99 99 99 39 39 150 150 150
 161 161 161 146 146 130 130 130 130 130 130 231 13 231 148 148 148 148 148 148
 99 99 99 99 150 150 150 150 150 161 161 161 161 161 130 130 130 130 130 13
 13 13 13 148 148 148 148 148 148 148 99 99 150 150 150 150 150 150 161 161
 161 161 161 130 130 107 107 107 13 13 13 13 64 64 64 64 64 137 137 137
 137 150 150 150 150 150 150 161 161 161 161 161 107 107 107 107 107 13 13 13
 13 64 64 64 64 137 137 137 137 137 150 150 150 150 150 150 161 161 161 161
 69 69 107 107 107 107 13 13 13 13 64 64 64 64 137 137 137 137 137 127
 209 150 150 150 150 138 138 161 161 69 69 69 69 107 107 13 13 144 144 144
 64 64 137 137 137 137 137 127 127 209 209 209 209 138 138 138 138 69 69 69
 69 69 69 69 69 13 144 144 144 144 212 212 137 137 137 137 127 127 209 209
 209 209 138 138 138 138 69 69 69 69 69 69 87 87 144 144 144 144 144 212
 212 212 137 188 188 188 127 209 209 209 209 138 138 138 69 69 69 69 69 69
 87 87 87 144 144 144 144 144 212 212 218 188 188 188 188 188 209 209 209 209
 7 7 7 7 69 69 69 69 87 87 87 87 144 144 144 144 144 144 218 218
 218 218 188 188 188 209 209 209 7 7 7 7 7 125 125 69 87 87 87 87
 87 144 144 144 171 191 191 218 218 218 218 218 188 188 103 103 7 7 7 7
 7 7 125 125 125 87 87 87 87 87 144 171 171 171 191 191 191 218 218 218
 218 188 103 103 103 103 7 7 7 7 7 125 125 125 158 158 158 158 158 171
 171 171 171 191 191 191 218 218 218 218 103 103 103 103 103 184 184 7 7 18
 18 125 125 158 158 158 158 223 171 171 171 171 191 191 191 229 229 229 229 21
 103 103 103 103 184 184 184 18 18 18 176 176 176 158 158 223 223 223 223 106
 106 106 191 191 229 229 229 229 21 103 103 103 103 184 184 184 184 18 176 176
 176 176 176 223 223 223 223 106 106 106 3 3 229 229 229 229 229 21 103 103
 103 103 184 184 184 184 176 176 176 176 176 176 176 223 223 223 106 106 106 3
 3 3 229 229 229 229 21 103 103 103 103 184 184 184 184 176 176 176 176 176
 176 176 223 223 106 106 106 106 3 3 3 88 229 229 227 227 103 103 243 243
 243 243 243 243 176 176 176 176 176 176 176 176 106 106 106 106 106 3 88 88
 88 88 227 227 227 227 227 243 243 243 243 243 243 243 176 176 176 176 176 176
 8 106 106 8 106 106 88 88 88 88 88 227 227 227 227 227 243 243 243 243
 243 243 246 176 176 16 16 16 16 8 8 8 58 234 234 234 88 88 88 88
 88 227 227 227 227 227 243 243 243 243 243 246 16 16 16 16 16 58 58 58
 58 58 234 234 234 234 88 88 88 227 227 227 227 227 227 243 243 243 243 243
 246 246 16 16 16 16 58 58 58 58 58 234 234 234 234 234 88 88 227 227
 227 227 227 227 46 46 46 46 197 246 246 16 16 16 16 58 58 58 58 58
 234 234 234 234 234 88 39 39 39 39 39 39 39 46 46 46 46 197 197 197
 195 195 195 58 58 58 58 58 232 232 232 232 232 232 232 232 39 39 39 39
 39 207 46 46 46 46 46 146 146 146 195 195 76 76 58 58 58 231 232 232
 232 232 232 232 99 99 39 39 39 39 46 46 46 46 46 146 146 146 146 146
 76 76 76 76 76 58 231 231 232 232 232 232 148 99 99 99 39 39 39 39
 46 46 46 46 146 146 146 146 146 76 76 76 76 76 231 231 231 231 232 148
 148 148 148 99 99 99 39 39 39 46 46 46 146 146 146 146 146 76 76 76
 76 76 76 231 231 231 231 148 148 148 148 148 99 99 99 99 39 39 46 150
 150 239 146 146 146 146 76 76 76 76 76 76 231 231 231 231 148 148 148 148
 148 99 99 99 99 150 150 150 150 150 239 239 239 146 146 76 76 76 76 76
 76 13 13 13 148 148 148 148 148 148 148 99 99 201 150 150 150 150 150 239
 239 239 239 31 31 130 107 107 107 107 13 13 13 64 64 64 64 148 137 137
 137 137 150 150 150 150 150 150 239 239 239 161 31 31 107 107 107 107 225 13
 13 64 64 64 64 64 137 137 137 137 137 209 150 150 150 150 150 239 239 239
 161 69 69 69 107 107 107 225 13 120 120 64 64 64 64 137 137 137 137 137
 209 209 209 209 150 150 239 161 161 69 69 69 69 69 107 107 225 13 120 120
 212 212 212 212 137 137 137 137 137 209 209 209 209 209 209 138 138 138 69 69
 69 69 69 69 69 69 69 144 144 144 212 212 212 212 137 137 137 209 209 209
 209 209 209 209 138 138 69 69 69 69 69 69 69 69 69 144 144 144 144 212
 212 212 212 212 188 188 188 209 209 209 209 209 209 85 85 69 69 69 69 69
 69 87 87 87 144 144 144 144 144 212 212 212 169 169 169 188 209 209 209 209
 209 85 85 85 125 125 125 69 69 87 87 87 87 144 144 144 144 144 212 169
 169 169 169 169 188 209 209 209 209 85 85 85 85 125 125 125 125 87 87 87
 87 87 144 144 144 144 144 191 169 169 169 169 169 169 21 209 103 85 85 85
 85 85 125 125 125 125 125 158 158 158 158 158 171 171 171 171 191 169 169 169
 169 169 169 21 103 103 103 85 85 85 85 18 125 125 125 158 158 158 158 158
 171 171 171 171 171 191 169 169 169 169 21 21 21 103 103 103 184 184 85 18
 18 18 125 125 158 158 158 158 158 171 171 171 171 171 191 191 229 229 229 21
 21 21 103 103 103 184 184 184 18 18 18 125 176 158 158 158 158 223 223 223
 106 106 106 191 191 229 229 229 21 21 21 103 103 103 184 184 184 18 18 18
 176 176 176 158 158 223 223 223 106 106 106 3 3 3 229 229 229 21 21 21
 103 103 103 184 184 184 184 18 176 176 176 176 176 223 223 223 223 106 106 106
 3 3 3 229 229 229 21 21 21 21 103 103 243 184 184 184 176 176 176 176
 176 176 176 223 223 106 106 106 106 3 3 3 88 229 100 100 21 21 21 243
 243 243 243 243 243 91 91 176 176 176 176 176 223 106 106 106 106 106 3 88
 88 88 135 100 100 227 227 227 243 243 243 243 243 243 91 91 176 16 16 16
 176 8 106 106 106 106 106 198 88 88 88 135 135 227 227 227 227 243 243 243
 243 243 243 91 91 16 16 16 16 16 58 58 106 58 58 234 234 88 88 135
 135 135 227 227 227 227 227 98 98 98 243 243 16 16 16 16 16 16 16 58
 58 58 58 58 234 234 234 88 88 135 135 227 227 227 227 227 98 98 98 98
 98 16 16 16 16 16 16 58 58 58 58 58 234 234 234 234 234 135 135 135
 227 227 227 227 207 207 207 98 98 98 195 195 195 195 195 16 58 58 58 58
 58 58 234 234 232 232 135 135 39 39 39 39 39 207 207 46 46 46 46 195
 195 195 195 195 195 58 58 58 58 232 232 232 232 232 232 232 232 39 39 39
 39 39 207 207 207 207 46 146 146 146 146 195 195 195 195 76 58 58 232 232
 232 232 232 232 232 232 99 39 39 39 39 207 207 46 46 146 146 146 146 146
 146 76 76 76 76 76 58 231 232 232 232 232 232 232 99 99 99 39 39 39
 207 46 46 46 146 146 146 146 146 146 76 76 76 76 76 185 231 231 232 232
 232 148 148 148 99 99 99 39 39 39 46 46 46 146 146 146 146 146 146 76
 76 76 76 76 185 231 231 231 148 148 148 148 148 99 99 201 201 201 201 150
 150 239 146 146 146 146 146 146 76 76 76 76 76 185 231 231 231 148 148 148
 148 148 148 99 201 201 201 150 150 150 239 239 239 239 239 31 31 76 76 76
 76 225 225 225 120 148 148 148 148 148 148 148 201 201 201 201 150 150 150 239
 239 239 239 239 31 31 31 107 107 225 225 225 225 120 120 64 64 148 148 137
 137 137 201 201 150 150 150 239 239 239 239 239 31 31 31 31 107 107 225 225
 225 120 120 120 64 64 64 137 137 137 137 137 209 150 150 150 239 239 239 239
 239 31 31 31 69 107 107 225 225 225 120 120 120 64 212 212 137 137 137 137
 137 209 209 209 209 209 239 239 239 239 69 69 69 69 69 28 225 225 225 120
 120 186 186 212 212 212 137 137 137 209 209 209 209 209 209 209 239 239 239 69
 69 69 69 69 28 28 28 28 120 186 186 186 212 212 212 212 137 137 209 209
 209 128 209 209 209 209 138 69 69 69 69 69 69 28 28 28 29 144 186 186
 186 212 212 212 212 137 137 209 209 209 209 209 209 209 85 85 69 69 69 69
 69 69 28 28 29 29 144 144 144 186 212 212 212 169 169 169 209 209 209 209
 209 209 85 85 85 125 125 125 125 69 87 87 29 29 29 144 144 144 144 212
 169 169 169 169 169 169 209 209 209 209 85 85 85 85 125 125 125 125 125 87
 87 29 29 29 144 144 144 224 169 169 169 169 169 169 169 21 21 209 85 85
 85 85 85 125 125 125 125 125 158 158 158 158 29 171 171 171 171 169 169 169
 169 169 169 21 21 21 21 85 85 85 85 85 18 125 125 125 158 158 158 158
 158 171 171 171 171 171 169 169 169 169 169 21 21 21 21 21 21 65 85 85
 18 18 18 125 125 158 158 158 158 158 171 171 171 171 171 191 169 169 169 169
 21 21 21 21 21 103 184 184 184 18 18 18 125 125 158 158 158 158 158 223
 106 106 106 106 191 121 121 121 21 21 21 21 21 21 103 184 184 184 18 18
 18 176 176 158 158 158 158 223 223 106 106 106 106 3 3 229 121 21 21 21
 21 21 21 21 184 184 184 184 18 18 176 176 158 158 158 223 223 223 106 106