# vtk DataFile Version 2.0
Data set from ImportExport Version 6.5.171.b0b162591
ASCII

DATASET RECTILINEAR_GRID
DIMENSIONS 30 30 30
X_COORDINATES 30 float
-1.250000 1.250000 3.750000 6.250000 8.750000 11.250000 13.750000 16.250000 18.750000 21.250000 23.750000 26.250000 28.750000 31.250000 33.750000 36.250000 38.750000 41.250000 43.750000 46.250000 48.750000 
51.250000 53.750000 56.250000 58.750000 61.250000 63.750000 66.250000 68.750000 71.250000 
Y_COORDINATES 30 float
-1.250000 1.250000 3.750000 6.250000 8.750000 11.250000 13.750000 16.250000 18.750000 21.250000 23.750000 26.250000 28.750000 31.250000 33.750000 36.250000 38.750000 41.250000 43.750000 46.250000 48.750000 
51.250000 53.750000 56.250000 58.750000 61.250000 63.750000 66.250000 68.750000 71.250000 
Z_COORDINATES 30 float
-1.250000 1.250000 3.750000 6.250000 8.750000 11.250000 13.750000 16.250000 18.750000 21.250000 23.750000 26.250000 28.750000 31.250000 33.750000 36.250000 38.750000 41.250000 43.750000 46.250000 48.750000 
51.250000 53.750000 56.250000 58.750000 61.250000 63.750000 66.250000 68.750000 71.250000 
CELL_DATA 24389
SCALARS FeatureIds int 1
LOOKUP_TABLE default
 109 109 109 109 163 163 163 163 163 163 163 121 121 121 121 121 121 121 40 145
 59 59 59 33 33 224 224 224 224 109 109 109 109 163 163 163 163 163 163 163
 163 121 121 121 121 121 40 40 59 59 59 59 59 224 224 224 224 224 109 109
 109 109 118 163 163 163 163 163 163 73 73 121 121 121 40 40 40 59 59 59
 59 59 59 224 224 224 224 187 187 109 118 118 118 118 163 163 163 73 73 73
 73 138 138 40 40 40 59 59 59 59 59 59 224 224 224 224 187 187 187 118
 118 118 118 118 160 160 160 73 73 73 138 138 40 40 99 99 99 99 59 99
 99 224 224 224 224 187 187 187 118 118 118 118 118 160 160 160 73 73 73 138
 138 84 84 99 99 99 99 99 99 99 99 205 205 205 187 187 187 118 118 118
 118 118 160 160 160 73 73 17 17 84 84 84 84 99 99 99 99 99 99 99
 205 205 205 205 205 118 118 118 118 118 118 160 160 160 17 17 17 17 17 84
 84 84 99 99 99 99 99 99 154 154 154 154 154 154 118 118 118 118 118 118
 160 160 17 17 17 17 17 17 84 84 84 99 220 220 220 20 20 154 154 154
 154 154 154 154 118 118 118 118 118 188 17 17 17 17 17 17 17 84 84 61
 61 220 220 220 20 20 154 154 154 154 154 154 185 185 185 96 188 188 188 188
 17 17 17 17 17 17 17 61 61 61 220 220 220 20 20 154 154 154 154 154
 185 185 185 185 185 188 188 188 9 9 9 17 17 17 17 17 61 61 61 61
 220 220 20 20 154 154 154 154 185 185 185 185 185 185 188 188 188 9 9 9
 9 212 212 212 60 60 61 144 144 144 144 144 144 154 154 154 154 185 185 185
 185 185 185 188 188 188 188 9 9 9 212 212 212 60 60 60 144 144 144 144
 144 144 226 226 226 226 226 185 185 185 185 185 188 188 188 188 9 9 9 60
 60 60 60 60 60 144 144 144 144 166 166 226 226 226 226 226 185 185 185 185
 185 188 188 188 188 9 9 60 60 60 60 60 60 60 144 144 166 166 166 166
 226 226 226 226 226 226 185 185 185 185 188 188 188 237 237 9 60 60 60 60
 60 60 60 166 166 166 166 166 166 166 226 226 226 226 226 185 185 156 156 237
 237 237 237 237 237 60 60 60 60 60 60 60 166 166 166 166 166 166 166 226
 226 226 173 173 173 156 156 156 237 237 237 237 237 237 237 60 60 60 60 60
 60 166 166 166 166 166 166 166 226 226 226 173 173 173 156 156 156 156 237 237
 237 237 237 237 25 60 60 60 60 222 166 166 166 166 166 166 166 166 226 226
 173 173 156 156 156 156 156 237 237 237 237 237 25 25 25 25 25 222 222 222
 63 63 63 166 166 166 166 211 211 211 211 156 156 156 156 156 156 183 183 183
 25 25 25 25 25 25 222 222 222 63 63 63 63 166 166 211 211 211 211 211
 211 156 156 156 156 156 183 183 183 25 25 25 25 25 25 222 222 222 222 63
 63 71 71 71 211 211 211 211 211 211 211 156 156 156 156 183 183 183 25 25
 25 25 25 25 222 222 222 222 222 71 71 71 71 211 211 211 211 211 211 211
 195 195 195 195 183 183 183 25 25 25 25 25 222 222 222 222 222 222 71 71
 71 71 211 211 211 211 211 211 195 195 195 195 195 183 183 183 121 121 121 121
 121 121 222 222 222 222 71 71 71 71 71 71 211 211 211 211 211 195 195 195
 195 195 195 183 183 121 121 121 121 121 121 121 222 222 222 71 71 71 71 71
 211 211 211 211 211 211 195 195 195 195 195 163 163 121 121 121 121 121 121 121
 121 121 145 145 71 71 71 71 71 211 211 211 211 211 211 195 195 163 163 163
 163 163 163 121 121 121 121 121 121 121 121 145 145 145 71 71 71 71 211 211
 211 109 109 109 109 163 163 163 163 163 163 163 163 121 121 121 121 121 121 145
 145 145 33 33 33 33 33 224 224 224 109 109 109 109 109 163 163 163 163 163
 163 163 121 121 121 121 121 40 40 59 59 59 59 33 33 33 224 224 224 109
 109 109 109 109 163 163 163 163 163 163 73 105 105 121 121 40 40 40 59 59
 59 59 59 33 33 224 224 224 109 109 109 109 118 118 118 163 163 163 163 73
 73 73 138 138 138 40 40 59 59 59 59 59 33 224 224 224 224 109 109 109
 118 118 118 118 118 163 163 160 73 73 138 138 138 138 99 99 99 99 99 99
 99 99 99 205 205 205 205 187 187 118 118 118 118 118 160 160 160 73 73 138
 138 138 138 138 99 99 99 99 99 99 99 99 205 205 205 205 205 118 118 118
 118 118 118 160 160 160 73 138 138 138 138 138 138 99 99 99 99 99 99 99
 205 205 205 205 205 205 205 118 118 118 118 118 118 160 160 138 138 138 138 138
 138 84 99 99 99 99 99 99 99 205 205 205 205 205 205 205 118 118 118 118
 118 118 160 17 17 17 17 235 235 235 84 84 99 220 220 220 20 20 154 154
 154 154 154 205 205 96 96 96 96 96 96 17 17 17 17 17 17 17 235 84
 61 220 220 220 220 20 20 154 154 154 154 154 154 185 96 96 96 96 96 96
 9 9 17 17 17 17 17 17 61 61 61 220 220 220 20 20 154 154 154 154
 154 185 185 185 185 96 96 188 188 9 9 9 9 17 17 17 212 61 61 144
 144 220 144 144 20 154 154 154 154 185 185 185 185 185 185 188 188 188 9 9
 9 9 212 212 212 212 212 144 144 144 144 144 144 144 154 154 154 154 185 185
 185 185 185 185 188 188 188 9 9 9 9 212 212 212 212 60 60 144 144 144
 144 144 144 226 226 226 226 226 185 185 185 185 188 188 188 188 188 9 9 9
 60 212 60 60 60 60 144 144 144 144 166 166 166 226 226 226 226 185 185 185
 185 188 188 188 188 188 9 9 9 60 60 60 60 60 60 144 144 166 166 166
 166 166 226 226 226 226 226 216 216 216 188 188 242 242 242 242 242 60 60 60
 60 60 60 60 60 166 166 166 166 166 166 226 226 226 226 173 216 216 216 156
 188 242 242 242 242 242 60 60 60 60 60 60 60 166 166 166 166 241 241 166
 226 226 226 173 173 173 156 156 156 237 237 237 237 237 237 237 60 60 60 60
 60 60 166 166 166 166 166 166 166 166 248 226 173 173 173 156 156 156 156 237
 237 237 237 237 237 25 60 204 60 74 74 89 89 166 166 166 166 166 166 248
 173 173 173 173 156 156 156 156 237 237 237 237 237 25 25 25 204 204 74 89
 89 89 89 89 166 166 166 166 173 173 173 173 173 156 156 156 156 156 237 183
 237 25 25 25 25 25 204 222 222 222 89 89 89 89 89 166 173 173 173 173
 173 173 156 156 156 156 156 183 183 183 25 25 25 25 25 204 222 222 222 222
 89 89 89 89 71 211 211 211 211 211 211 211 156 156 156 183 183 183 183 25
 25 25 25 25 25 222 222 222 222 89 89 71 71 71 211 211 211 211 211 211
 195 195 195 195 183 183 183 183 25 25 25 25 25 222 222 222 222 222 222 71
 71 71 71 211 211 211 211 211 211 195 195 195 195 195 183 183 183 25 121 121
 121 121 121 222 222 222 222 222 71 71 71 71 211 211 211 211 211 211 195 195
 195 195 195 183 183 183 121 121 121 121 121 121 145 145 145 145 145 71 71 71
 71 211 211 211 211 211 211 195 195 195 195 163 163 163 121 121 121 121 121 121
 121 121 145 145 145 145 71 71 71 71 211 211 211 211 211 211 195 195 163 163
 163 163 163 163 121 121 121 121 121 121 121 145 145 145 145 33 33 33 33 211
 211 211 109 109 109 109 109 163 163 163 163 163 163 163 121 121 121 121 121 145
 145 145 145 33 33 33 33 33 33 33 33 109 109 109 109 109 163 163 163 163
 163 163 163 105 105 121 121 121 145 145 59 59 59 33 33 33 33 33 33 33
 109 109 109 109 109 163 163 163 163 163 163 105 105 105 105 105 105 40 59 59
 59 59 59 33 33 33 33 224 224 109 109 109 109 118 118 118 163 163 163 163
 105 105 105 138 138 138 138 59 59 59 59 59 59 33 33 33 224 205 109 109
 109 118 118 118 118 118 163 163 163 73 138 138 138 138 138 138 99 99 99 99
 99 99 99 99 205 205 205 205 136 136 118 118 118 118 118 118 160 160 79 138
 138 138 138 138 138 99 99 99 99 99 99 99 205 205 205 205 205 205 136 118
 118 118 118 118 118 160 79 79 138 138 138 138 138 138 99 99 99 99 99 99
 99 205 205 205 205 205 205 205 118 118 118 118 118 118 118 79 79 138 138 138
 235 235 235 235 99 99 99 99 99 205 205 205 205 205 205 205 205 118 118 118
 118 118 118 118 79 79 235 235 235 235 235 235 164 220 220 220 220 99 205 205
 205 205 205 205 205 205 96 96 96 96 96 96 19 19 19 19 235 235 235 235
 235 220 220 220 220 220 220 205 205 154 154 154 205 205 96 96 96 96 96 96
 96 19 19 19 19 19 17 235 235 235 220 220 220 220 220 220 154 154 154 154
 154 205 185 185 185 96 96 96 96 96 19 19 19 19 19 212 212 212 212 61
 220 220 220 144 144 154 154 154 154 154 185 185 185 185 185 96 96 188 188 9
 9 9 9 212 212 212 212 212 144 144 144 144 144 144 144 154 154 154 154 185
 185 185 185 185 185 188 188 188 9 9 9 9 212 212 212 212 60 60 144 144
 144 144 144 144 91 91 91 91 146 146 146 146 185 188 188 188 188 188 9 9
 9 60 60 60 60 60 60 144 144 144 144 166 166 166 91 91 91 146 146 146
 216 216 216 188 188 242 242 242 9 60 60 60 60 60 60 60 144 144 166 166
 166 166 166 226 91 91 226 216 216 216 216 216 188 242 242 242 242 242 60 60
 60 60 60 60 60 166 166 166 166 166 166 166 248 248 91 248 216 216 216 216
 215 215 242 242 242 242 242 60 60 60 60 60 60 60 166 166 166 166 166 166
 166 248 248 248 173 173 173 216 215 215 215 215 242 242 242 242 242 60 60 60
 60 60 74 166 166 166 166 166 166 166 248 248 248 173 173 173 173 156 156 215
 215 237 237 237 237 237 204 204 204 204 74 74 74 89 89 166 166 166 166 248
 248 173 173 173 173 173 156 156 156 215 237 237 237 237 25 25 204 204 204 74
 74 74 89 89 89 89 166 166 248 173 173 173 173 173 173 156 156 156 156 237
 237 237 25 25 25 25 204 204 74 74 74 89 89 89 89 89 89 248 173 173
 173 173 173 173 156 156 156 156 183 183 183 25 25 25 25 204 204 222 222 89
 89 89 89 89 89 89 173 173 173 173 173 173 173 156 156 156 156 183 183 183
 25 25 25 25 25 204 222 222 222 89 89 89 89 89 89 211 211 173 211 211
 211 195 195 195 195 195 183 183 183 25 25 25 25 53 53 222 222 222 222 222
 89 89 71 71 211 211 211 211 211 211 195 195 195 195 195 183 183 183 25 121
 121 121 53 53 222 145 145 145 145 145 71 71 71 211 211 211 211 211 211 195
 195 195 195 195 195 183 183 113 121 121 121 121 121 145 145 145 145 145 145 71
 71 71 211 211 211 211 211 211 195 195 195 195 163 163 163 163 121 121 121 121
 121 121 145 145 145 145 145 145 33 33 33 211 211 211 211 211 211 195 195 163
 163 163 163 163 163 121 121 121 121 121 121 145 145 145 145 145 33 33 33 33
 33 211 211 109 109 109 109 109 163 163 163 163 163 163 105 105 105 105 105 105
 145 145 145 145 33 33 33 33 33 33 33 33 109 109 109 109 109 109 163 163
 163 163 163 105 105 105 105 105 105 145 145 59 59 33 33 33 33 33 33 33
 33 109 109 109 109 109 109 163 163 163 163 163 105 105 105 105 105 105 105 59
 59 59 59 33 33 33 33 33 33 33 109 109 109 109 109 118 118 163 163 163
 163 105 105 105 105 105 138 138 59 59 59 59 59 33 33 33 33 205 205 136
 109 109 109 118 118 118 118 163 163 79 105 105 138 138 138 138 138 99 99 99
 99 99 99 99 99 205 205 205 136 136 136 136 118 118 118 118 118 79 79 79
 79 138 138 138 138 138 99 99 99 99 99 99 99 205 205 205 205 205 136 136
 118 118 118 118 118 118 79 79 79 79 138 138 138 138 138 164 99 99 99 99
 99 99 205 205 205 205 205 205 136 118 118 118 118 118 118 79 79 79 79 138
 235 235 235 164 164 99 99 99 99 99 205 205 205 205 205 205 205 205 96 96
 96 96 96 96 79 79 79 79 235 235 235 235 164 164 164 220 220 88 88 88
 205 205 205 205 205 205 205 96 96 96 96 96 96 19 19 19 19 235 235 235
 235 164 164 220 220 220 88 88 88 205 205 205 205 205 205 96 96 96 96 96
 96 96 19 19 19 19 19 235 235 235 164 164 220 220 220 88 88 88 205 205
 205 205 205 205 96 96 96 96 96 96 96 19 19 19 19 19 19 212 56 56
 56 220 220 220 144 88 88 205 205 205 205 91 185 185 185 96 96 96 96 96
 19 19 19 19 19 212 212 56 56 56 56 144 144 144 144 144 91 91 91 91
 91 146 146 146 185 96 96 96 96 42 42 42 42 42 212 212 56 56 56 56
 144 144 144 144 144 91 91 91 91 91 146 146 146 216 216 188 188 188 42 42
 42 42 60 60 60 60 56 56 56 144 144 166 166 166 91 91 91 91 91 216
 216 216 216 216 188 188 242 242 242 242 60 60 60 60 60 60 60 144 144 166
 166 166 166 166 91 91 91 91 216 216 216 216 216 215 242 242 242 242 242 60
 60 60 60 60 60 60 166 166 166 166 166 166 166 248 248 91 248 216 216 216
 216 215 215 242 242 242 242 242 242 60 16 16 16 16 16 166 166 166 166 166
 166 248 248 248 248 248 173 173 173 215 215 215 215 242 242 242 242 242 16 16
 16 16 16 74 74 166 166 166 166 166 248 248 248 248 173 173 173 173 215 215
 215 215 215 242 237 237 25 204 204 204 204 74 74 74 89 89 89 166 166 248
 248 248 248 173 173 173 173 156 215 215 215 215 237 237 237 25 25 204 204 204
 74 74 74 89 89 89 89 166 248 248 248 173 173 173 173 173 156 156 215 215
 215 215 237 25 25 25 204 204 204 74 74 74 89 89 89 89 89 248 248 173
 173 173 173 173 173 156 156 156 215 215 183 183 25 25 25 204 204 204 74 74
 89 89 89 89 89 89 89 173 173 173 173 173 173 173 156 156 156 215 183 183
 183 25 25 25 25 204 204 53 222 89 89 89 89 89 89 89 173 173 173 101
 173 173 195 195 195 195 195 183 183 113 113 25 25 53 53 53 53 53 222 89
 89 89 89 89 89 101 101 101 101 101 101 195 195 195 195 195 183 183 113 113
 113 53 53 53 53 53 145 145 145 145 145 89 89 101 101 101 101 101 101 101
 195 195 195 195 195 195 113 113 113 113 53 53 53 53 145 145 145 145 145 145
 145 33 33 101 101 101 101 101 195 195 195 195 195 163 163 163 113 113 113 53
 53 53 53 145 145 145 145 145 145 33 33 33 101 101 101 101 101 195 195 195
 163 163 163 163 163 163 121 121 121 121 53 53 145 145 145 145 145 33 33 33
 33 33 101 101 109 109 109 109 109 12 12 12 12 12 12 105 105 105 105 105
 105 145 145 145 145 33 33 33 33 33 33 33 66 109 109 109 109 109 109 12
 12 12 12 12 105 105 105 105 105 105 132 145 145 161 33 33 33 33 33 33
 33 66 109 109 109 109 109 109 12 12 12 12 12 105 105 105 105 105 105 132
 132 161 161 161 33 33 33 227 227 227 136 109 109 109 109 109 109 12 12 12
 12 105 105 105 105 105 105 105 132 161 161 161 161 161 33 33 227 227 136 136
 136 136 136 136 136 118 118 118 12 12 79 105 105 105 105 138 138 138 161 161
 161 161 161 99 33 227 205 136 136 136 136 136 136 136 118 118 118 118 79 79
 79 79 79 138 138 138 164 164 161 161 161 99 99 86 205 205 205 205 205 136
 136 136 118 118 118 118 118 79 79 79 79 79 138 235 235 164 164 164 99 99
 99 99 205 205 205 205 205 205 205 136 136 118 118 118 96 96 79 79 79 79
 79 235 235 164 164 164 164 143 143 88 88 88 205 205 205 205 205 205 136 96
 96 96 96 96 96 79 79 79 79 79 235 235 164 164 164 164 143 143 88 88
 88 205 205 205 205 205 205 205 96 96 96 96 96 96 19 19 19 19 79 235
 235 164 164 164 143 143 143 88 88 88 205 205 205 205 205 205 96 96 96 96
 96 96 96 19 19 19 19 19 19 235 164 164 164 143 143 143 88 88 88 205
 205 205 205 205 205 96 96 96 96 96 96 96 19 19 19 19 19 19 56 56
 56 56 56 143 143 88 88 88 205 205 205 205 91 91 185 96 96 96 96 96
 96 19 19 42 42 42 212 56 56 56 56 56 144 144 144 88 88 91 91 91
 91 91 146 146 146 96 96 96 96 96 42 42 42 42 42 212 56 56 56 56
 56 144 144 144 144 91 91 91 91 91 91 146 146 216 216 216 96 96 96 42
 42 42 42 42 60 56 56 56 56 56 144 144 166 166 91 91 91 91 91 91
 216 216 216 216 216 96 242 242 242 242 42 42 42 16 16 56 56 56 56 144
 166 166 166 166 91 91 91 91 91 216 216 216 216 216 215 215 242 242 242 242
 42 16 16 16 16 16 56 56 166 166 166 166 166 248 248 248 91 248 83 83
 216 216 215 215 215 242 242 242 242 242 16 16 16 16 16 16 16 166 166 166
 166 248 248 248 248 248 248 83 83 216 215 215 215 215 215 242 242 242 242 16
 16 16 16 16 74 74 89 166 166 166 248 248 248 248 248 173 173 173 173 215
 215 215 215 215 215 215 242 242 16 16 16 16 74 74 74 89 89 89 166 248
 248 248 248 248 173 173 173 173 215 215 215 215 215 215 215 215 25 25 204 204
 204 74 74 74 89 89 89 82 82 248 248 248 173 173 173 173 173 215 215 215
 215 215 215 215 25 25 25 204 204 204 74 74 74 89 89 89 82 82 82 248
 173 173 173 173 173 173 215 215 215 215 215 215 215 25 25 25 204 204 204 74
 74 74 89 89 89 82 82 82 173 173 173 173 173 173 173 173 215 215 215 215
 113 113 113 113 25 53 53 53 53 53 89 89 89 89 82 82 82 101 101 173
 101 101 101 101 195 195 195 215 113 113 113 113 113 53 53 53 53 53 53 53
 89 89 89 82 82 101 101 101 101 101 101 101 101 195 195 195 195 113 113 113
 113 113 53 53 53 53 53 145 145 145 145 145 82 82 101 101 101 101 101 101
 101 101 195 195 195 195 113 113 113 113 113 53 53 53 53 53 145 145 145 145
 145 145 33 101 101 101 101 101 101 101 101 195 195 195 12 12 113 113 113 113
 53 53 53 53 145 145 145 145 145 145 33 33 33 101 101 101 101 101 101 101
 195 12 12 12 12 12 113 113 113 53 53 53 53 145 145 145 145 145 33 33
 33 33 101 101 101 101 109 109 109 109 12 12 12 12 12 12 105 105 105 105
 105 105 132 145 145 81 81 33 33 33 200 200 200 66 109 109 109 109 109 12
 12 12 12 12 12 105 105 105 105 105 132 132 132 161 161 161 33 33 227 227
 227 227 66 109 109 109 109 109 12 12 12 12 12 12 105 105 105 105 105 132
 132 132 161 161 161 161 33 227 227 227 227 136 136 136 136 109 109 12 12 12
 12 12 105 105 105 105 105 105 132 132 132 161 161 161 161 161 227 227 227 227
 136 136 136 136 136 136 118 118 12 12 12 79 79 79 105 105 105 132 132 132
 161 161 161 161 86 86 227 227 136 136 136 136 136 136 136 118 118 118 79 79
 79 79 79 79 79 79 164 164 164 161 161 161 86 86 86 86 205 205 136 136
 136 136 136 136 118 118 118 79 79 79 79 79 79 79 79 164 164 164 164 161
 86 86 86 86 205 205 205 205 205 136 136 136 120 120 120 96 79 79 79 79
 79 79 79 164 164 164 164 164 143 143 88 88 88 205 205 205 205 205 205 136
 120 120 120 120 96 79 79 79 79 79 79 79 164 164 164 164 164 143 143 88
 88 88 205 205 205 205 205 205 120 120 120 96 96 96 96 19 19 19 79 159
 159 164 164 164 164 143 143 143 88 88 88 88 205 205 205 205 205 96 96 96
 96 96 96 96 19 19 19 19 159 159 159 164 164 164 143 143 143 88 88 88
 88 205 205 205 205 8 96 96 96 96 96 96 96 19 19 19 19 19 159 56
 56 56 56 56 143 143 88 88 88 88 205 205 205 91 8 8 96 96 96 96
 96 236 236 42 42 42 42 42 56 56 56 56 56 1 1 1 1 88 91 91
 91 91 91 8 8 8 96 96 96 96 236 236 42 42 42 42 42 56 56 56
 56 56 1 1 1 1 91 91 91 91 91 91 8 8 216 219 219 219 236 236
 68 42 42 42 42 42 56 56 56 56 56 1 1 1 1 91 91 91 91 91
 91 91 216 216 219 219 219 68 68 68 68 42 42 42 16 16 16 56 56 56
 1 1 1 166 91 91 91 91 91 91 83 83 216 219 219 215 215 68 68 68
 68 42 16 16 16 16 16 56 56 166 166 166 166 248 248 248 248 91 83 83
 83 216 215 215 215 215 215 242 242 242 16 16 16 16 16 16 16 16 166 166
 166 166 248 248 248 248 248 83 83 83 83 215 215 215 215 215 215 215 242 16
 16 16 16 16 16 74 74 89 82 166 166 248 248 248 248 248 83 83 83 173
 215 215 215 215 215 215 215 215 16 16 16 16 16 74 74 74 89 82 82 82
 248 248 248 248 248 173 173 173 173 215 215 215 215 215 215 215 215 16 16 204
 204 204 74 74 74 89 82 82 82 82 248 248 248 248 173 173 173 173 215 215
 215 215 215 215 215 215 25 25 204 204 204 74 74 74 89 82 82 82 82 82
 248 248 173 173 173 173 173 215 215 215 215 215 215 113 113 113 53 53 53 53
 74 74 74 89 82 82 82 82 82 248 248 173 101 101 101 101 215 215 215 215
 215 113 113 113 113 53 53 53 53 53 53 74 89 82 82 82 82 82 101 101
 101 101 101 101 101 101 195 215 215 113 113 113 113 113 53 53 53 53 53 53
 53 89 82 82 82 82 101 101 101 101 101 101 101 101 101 195 195 113 113 113
 113 113 113 53 53 53 53 53 53 145 145 145 155 155 82 101 101 101 101 101
 101 101 101 101 195 195 113 113 113 113 113 113 53 53 53 53 53 145 145 145
 145 155 155 155 101 101 101 101 101 101 101 101 101 12 12 12 113 113 113 113
 113 53 53 53 53 53 145 145 145 145 155 155 33 101 101 101 101 101 101 101
 101 101 12 12 12 12 113 113 113 113 105 53 53 53 53 145 145 145 145 33
 33 33 200 101 101 101 101 101 109 109 109 12 12 12 12 229 229 105 105 105
 105 105 132 132 132 81 81 81 81 200 200 200 200 66 66 101 109 109 109 109
 12 12 12 12 229 229 105 105 105 105 105 132 132 132 132 81 81 81 200 200
 200 200 200 66 109 109 109 109 109 12 12 12 12 229 229 105 105 105 105 132
 132 132 132 132 161 161 161 161 227 227 227 200 66 136 136 136 136 136 12 12
 12 12 229 229 105 105 105 105 132 132 132 132 132 161 161 161 161 227 227 227
 200 136 136 136 136 136 136 136 12 12 12 79 79 79 79 79 79 132 132 132
 132 161 161 161 161 86 86 86 227 136 136 136 136 136 136 136 136 118 12 79
 79 79 79 79 79 79 79 132 132 164 52 161 161 86 86 86 86 86 205 136
 136 136 136 136 136 136 120 120 79 79 79 79 79 79 79 79 164 164 164 164
 161 86 86 86 86 86 205 205 205 205 136 136 136 120 120 120 120 79 79 79
 79 79 79 79 79 164 164 164 164 143 143 86 86 86 205 205 205 205 31 31
 31 120 120 120 120 120 120 79 79 79 79 79 159 79 164 164 164 164 143 143
 88 88 88 88 205 205 205 31 31 31 120 120 120 120 120 96 79 79 79 159
 159 159 159 164 164 164 143 143 143 88 88 88 88 205 205 205 31 31 31 120
 120 120 120 96 96 19 19 19 159 159 159 159 164 164 56 143 143 143 88 88
 88 88 205 205 31 31 31 31 96 96 96 96 96 236 236 19 19 19 159 159
 56 56 56 56 56 1 1 88 88 88 88 205 205 31 8 8 8 8 96 96
 96 96 236 236 236 42 42 42 159 56 56 56 56 56 1 1 1 1 88 91
 91 91 91 8 8 8 8 219 219 96 236 236 236 236 42 42 42 42 56 56
 56 56 56 1 1 1 1 1 91 91 91 91 8 8 8 219 219 219 219 236
 236 68 68 42 42 42 42 56 56 56 56 56 1 1 1 1 1 91 91 91
 91 91 8 8 219 219 219 219 68 68 68 68 68 42 42 16 16 16 56 56
 56 1 1 1 1 248 248 91 91 91 83 83 83 219 219 219 219 68 68 68
 68 68 42 16 16 16 16 16 208 208 1 1 100 100 248 248 248 248 248 83
 83 83 83 219 215 215 215 215 68 68 68 68 16 16 16 16 16 208 208 208
 100 100 100 100 248 248 248 248 83 83 83 83 215 215 215 215 215 215 215 68
 16 16 16 16 16 208 208 208 208 100 100 100 248 248 248 248 248 83 83 83
 83 215 215 215 215 215 215 215 215 16 16 16 16 16 208 74 74 82 82 82
 82 248 248 248 248 248 173 173 173 173 215 215 215 215 215 215 215 215 131 131
 95 95 95 74 74 74 82 82 82 82 82 248 248 248 248 173 173 173 173 215
 215 215 215 215 215 215 113 131 95 95 95 95 74 74 74 82 82 82 82 82
 82 248 248 248 101 101 101 38 215 215 215 215 215 215 113 113 113 53 53 53
 53 53 74 74 82 82 82 82 82 82 248 101 101 101 101 101 38 38 215 215
 215 215 113 113 113 113 53 53 53 53 53 53 74 82 82 82 82 82 82 101
 101 101 101 101 101 101 101 38 38 113 113 113 113 113 113 53 53 53 53 53
 53 27 27 82 82 82 82 101 101 101 101 101 101 101 101 101 38 113 113 113
 113 113 113 113 53 53 53 53 53 53 145 27 27 155 155 155 101 101 101 101
 101 101 101 101 101 101 113 113 113 113 113 113 113 53 53 53 53 53 53 145
 145 155 155 155 155 101 101 101 101 101 101 101 101 101 12 12 245 245 245 113
 113 113 53 53 53 53 53 53 145 145 155 155 155 155 101 101 101 101 101 101
 101 101 101 12 12 12 12 245 245 113 113 105 53 53 53 53 145 145 81 81
 155 155 200 200 66 66 101 66 66 109 109 223 223 12 12 229 229 229 229 105
 105 105 132 132 132 81 81 81 81 81 200 200 200 66 66 66 66 109 109 109
 223 223 12 12 229 229 229 229 105 105 105 132 132 132 132 81 81 81 81 200
 200 200 200 66 66 136 136 136 109 223 223 12 12 229 229 229 229 105 105 105
 132 132 132 132 132 81 81 81 200 200 200 200 200 66 136 136 136 136 223 223
 223 12 229 229 229 229 105 105 72 132 132 132 132 132 161 161 161 86 86 227
 200 200 136 136 136 136 136 136 223 223 12 229 229 79 79 79 79 72 132 132
 132 132 52 161 161 86 86 86 86 200 200 136 136 136 136 136 136 136 223 12
 153 79 79 79 79 79 79 157 132 132 52 52 52 86 86 86 86 86 86 205
 136 136 136 136 136 136 120 120 120 153 79 79 79 79 148 148 79 164 164 52
 52 52 86 86 86 86 86 205 205 31 31 31 31 31 120 120 120 120 153 153
 79 79 79 148 148 79 164 164 164 52 52 86 86 86 86 86 205 31 31 31
 31 31 120 120 120 120 120 153 153 79 79 79 159 159 159 164 164 164 164 143
 143 88 88 88 88 205 31 31 31 31 31 120 120 120 120 120 153 153 153 79
 159 159 159 159 164 164 164 143 143 143 88 88 88 88 205 31 31 31 31 31
 120 120 120 120 120 153 153 153 159 159 159 159 159 159 56 192 46 46 46 46
 88 88 88 171 31 31 31 31 31 31 120 120 120 236 236 236 236 236 159 159
 159 159 56 56 56 46 46 46 46 46 88 171 171 171 171 8 8 8 8 96
 96 96 236 236 236 236 236 42 159 159 56 56 56 56 1 1 1 1 1 171
 171 171 171 171 8 8 8 8 219 219 219 236 236 236 236 236 42 42 56 56
 56 56 56 1 1 1 1 1 171 171 171 171 171 8 8 8 219 219 219 219
 236 236 68 68 68 42 42 16 56 56 56 56 1 1 1 1 1 1 171 171
 91 91 8 8 8 219 219 219 219 68 68 68 68 68 68 16 16 16 208 208
 208 208 1 1 1 1 100 248 91 91 91 83 83 83 219 219 219 219 68 68
 68 68 68 68 16 16 16 208 208 208 208 1 100 100 100 100 248 248 248 248
 83 83 83 83 219 219 215 215 68 68 68 68 68 16 16 16 208 208 208 208
 208 100 100 100 100 248 248 248 248 83 83 83 83 215 215 215 215 215 215 215
 68 16 16 16 16 208 208 208 208 208 100 100 100 100 248 248 248 248 83 83
 36 36 215 215 215 215 215 215 215 215 131 131 95 95 95 208 208 208 82 82
 82 82 100 248 248 248 248 83 83 36 215 215 215 215 215 215 215 215 131 131
 131 95 95 95 95 95 82 82 82 82 82 82 248 248 248 248 101 38 38 38
 38 215 215 215 215 215 215 131 131 131 95 95 95 95 95 82 82 82 82 82
 82 82 248 248 248 101 101 38 38 38 38 215 215 215 215 113 131 131 131 95
 95 95 95 95 82 82 82 82 82 82 82 82 101 101 101 101 38 38 38 38
 38 215 113 113 113 113 113 131 196 196 196 196 27 27 82 82 82 239 239 239
 101 101 101 101 101 101 38 38 38 38 215 113 113 113 113 113 53 196 196 196
 196 27 27 27 27 239 239 239 239 101 101 101 101 101 101 101 38 38 38 113
 113 113 113 113 113 53 196 196 196 196 27 27 27 27 155 155 155 101 101 101
 101 101 101 101 101 101 38 245 245 245 245 245 113 113 53 196 196 196 53 53
 27 27 155 155 155 155 155 101 101 101 101 101 101 101 101 101 12 245 245 245
 245 245 113 53 196 196 196 53 53 27 155 155 155 155 155 66 66 101 101 101
 101 101 101 101 12 12 12 245 245 245 245 245 105 196 53 196 53 145 81 81
 81 155 155 200 200 66 66 66 66 66 66 223 223 223 223 229 229 229 229 229
 229 105 105 132 132 132 134 134 134 134 134 155 200 200 66 66 66 66 66 223
 223 223 223 223 229 229 229 229 229 105 105 105 132 132 132 132 134 134 134 134
 134 200 200 200 66 66 66 136 136 223 223 223 223 229 229 229 229 229 105 72
 72 132 132 132 132 132 180 180 180 180 200 200 200 66 66 13 136 136 223 223
 223 223 223 229 229 229 229 72 72 72 72 132 132 132 52 180 180 180 180 86
 200 200 66 66 13 136 136 136 223 223 223 223 229 229 229 79 72 72 72 157
 132 132 52 52 52 180 180 86 86 86 200 13 13 13 13 136 136 136 223 223
 223 153 79 79 79 148 72 157 157 157 132 52 52 52 180 86 86 86 86 86
 31 31 31 31 31 31 31 120 120 153 153 153 79 79 148 148 148 157 157 52
 52 52 52 52 86 86 86 86 86 31 31 31 31 31 31 120 120 120 153 153
 153 153 79 148 148 148 157 157 52 52 52 52 52 86 86 86 86 31 31 31
 31 31 31 31 120 120 120 153 153 153 153 79 148 148 159 159 159 164 52 52
 52 143 88 88 88 88 31 31 31 31 31 31 31 120 120 120 153 153 153 153
 153 159 159 159 159 159 192 192 46 46 46 46 46 88 171 31 31 31 31 31
 31 31 120 120 120 153 153 153 153 153 159 159 159 159 192 192 192 46 46 46
 46 46 88 171 171 171 31 31 31 31 31 120 120 120 153 236 236 236 236 159
 159 159 159 192 192 192 46 46 46 46 46 171 171 171 171 171 8 8 8 8
 120 120 96 236 236 236 236 236 42 159 159 56 56 56 56 1 1 46 46 46
 171 171 171 171 171 8 8 8 8 219 219 219 236 236 236 236 236 42 42 56
 56 56 56 56 1 1 1 1 1 171 171 171 171 171 8 8 8 219 219 219
 219 68 68 68 68 68 42 42 16 208 208 208 208 1 1 1 1 1 171 171
 171 171 171 8 8 8 219 219 219 219 68 68 68 68 68 68 16 16 208 208
 208 208 208 1 1 1 100 100 171 171 171 171 36 36 36 219 219 219 219 68
 68 68 68 68 68 16 16 208 208 208 208 208 1 100 100 100 100 100 248 248
 248 36 36 36 36 219 219 219 215 68 68 68 68 68 16 208 208 208 208 208
 208 208 100 100 100 100 100 248 248 248 36 36 36 36 215 215 108 108 215 215
 215 68 131 16 95 208 208 208 208 208 208 100 100 100 100 100 248 248 36 36
 36 36 36 215 215 108 108 108 215 215 131 131 131 95 95 95 208 208 208 208
 82 100 100 100 100 248 248 36 36 36 36 36 215 215 108 108 108 215 215 131
 131 131 95 95 95 95 95 208 82 82 82 82 82 248 248 248 36 36 36 38
 38 38 38 215 215 215 215 131 131 131 131 95 95 95 95 95 95 82 82 82
 82 82 82 248 248 101 101 38 38 38 38 38 215 215 215 215 131 131 131 131
 95 95 95 95 95 27 27 82 239 239 239 239 239 101 101 101 38 38 38 38
 38 38 221 221 113 113 131 131 131 95 95 95 95 27 27 27 27 239 239 239
 239 101 101 101 101 101 38 38 38 38 38 221 245 113 113 113 113 196 196 196
 196 196 27 27 27 27 239 239 239 239 101 101 101 101 101 101 38 38 38 38
 245 245 245 245 245 113 196 196 196 196 196 27 27 27 27 155 155 155 155 101
 101 101 101 101 101 101 38 38 245 245 245 245 245 245 113 196 196 196 196 196
 27 27 27 27 155 155 155 155 101 101 101 101 101 101 101 101 223 245 245 245
 245 245 245 245 196 196 196 196 196 27 27 27 155 155 155 155 66 66 66 101
 66 101 101 101 101 223 223 245 245 245 245 245 245 196 196 196 196 196 134 134
 134 134 155 155 155 66 66 66 66 66 66 66 223 223 223 223 223 229 229 229
 229 229 105 115 115 115 132 134 134 134 134 134 155 155 66 66 66 66 66 66
 223 223 223 223 223 223 229 229 229 229 229 72 72 72 132 132 132 134 134 134
 134 134 200 66 66 66 66 13 13 13 223 223 223 223 223 229 229 229 229 72
 72 72 72 132 132 132 180 134 180 180 180 200 200 66 66 66 13 13 13 223
 223 223 223 223 229 229 229 229 72 72 72 72 132 132 52 52 180 180 180 180
 86 200 200 66 13 13 13 13 13 223 223 223 223 229 229 229 72 72 72 72
 72 157 132 52 52 52 180 180 180 86 86 200 13 13 13 13 13 13 223 223
 223 223 153 153 79 79 87 72 72 157 157 52 52 52 52 180 180 86 86 86
 86 13 13 13 13 13 13 13 223 153 153 153 153 153 79 148 148 157 157 157
 52 52 52 52 52 86 86 86 86 86 13 13 31 31 31 31 31 120 153 153
 153 153 153 153 148 148 148 157 157 52 52 52 52 52 86 86 86 86 31 31
 31 31 31 31 31 31 120 153 153 153 153 153 153 148 148 159 159 157 192 52
 52 52 52 46 46 88 31 31 31 31 31 31 31 31 120 120 120 153 153 153
 153 153 159 159 159 159 192 192 192 192 46 46 46 46 171 171 31 31 31 31
 31 31 31 120 120 120 153 153 153 153 153 159 159 159 159 192 192 192 192 46
 46 46 46 171 171 171 171 31 31 31 31 31 31 120 120 153 153 153 153 153