# vtk DataFile Version 2.0
Data set from ImportExport Version 6.5.171.b0b162591
ASCII

DATASET RECTILINEAR_GRID
DIMENSIONS 30 30 30
X_COORDINATES 30 float
-1.250000 1.250000 3.750000 6.250000 8.750000 11.250000 13.750000 16.250000 18.750000 21.250000 23.750000 26.250000 28.750000 31.250000 33.750000 36.250000 38.750000 41.250000 43.750000 46.250000 48.750000 
51.250000 53.750000 56.250000 58.750000 61.250000 63.750000 66.250000 68.750000 71.250000 
Y_COORDINATES 30 float
-1.250000 1.250000 3.750000 6.250000 8.750000 11.250000 13.750000 16.250000 18.750000 21.250000 23.750000 26.250000 28.750000 31.250000 33.750000 36.250000 38.750000 41.250000 43.750000 46.250000 48.750000 
51.250000 53.750000 56.250000 58.750000 61.250000 63.750000 66.250000 68.750000 71.250000 
Z_COORDINATES 30 float
-1.250000 1.250000 3.750000 6.250000 8.750000 11.250000 13.750000 16.250000 18.750000 21.250000 23.750000 26.250000 28.750000 31.250000 33.750000 36.250000 38.750000 41.250000 43.750000 46.250000 48.750000 
51.250000 53.750000 56.250000 58.750000 61.250000 63.750000 66.250000 68.750000 71.250000 
CELL_DATA 24389
SCALARS FeatureIds int 1
LOOKUP_TABLE default
 29 29 169 169 169 236 236 236 236 236 241 241 214 214 214 214 128 128 128 128
 128 128 128 100 100 100 29 29 29 29 169 169 169 169 169 236 236 236 236 241
 241 241 214 214 214 128 128 128 128 128 128 128 100 100 100 29 29 29 169 169
 169 169 169 169 236 236 236 236 241 241 214 214 1 1 1 128 128 128 128 128
 128 100 100 100 29 29 29 169 169 169 169 169 169 236 236 236 236 241 241 214
 1 1 1 133 133 133 128 128 128 128 100 146 146 146 146 146 169 169 169 169
 169 169 169 236 236 236 12 12 12 12 12 181 181 181 181 181 128 128 128 146
 146 146 146 146 146 169 169 169 169 169 169 169 236 108 12 12 12 12 12 12
 181 181 181 181 181 181 184 184 146 146 146 146 146 146 169 169 169 169 169 65
 65 65 108 108 12 12 12 12 12 12 150 150 150 150 184 184 184 184 146 146
 146 146 146 26 169 65 65 65 65 65 65 108 108 108 12 12 12 12 12 150
 150 150 150 184 184 184 184 184 146 146 146 146 26 26 65 65 65 65 65 65
 108 108 108 12 12 12 12 12 150 150 150 184 184 184 184 184 184 146 146 146
 146 26 26 26 65 65 65 65 65 108 108 108 108 12 12 12 12 150 150 150
 184 184 184 184 184 184 146 146 26 26 26 26 26 65 65 65 65 204 108 108
 108 108 12 12 12 12 150 150 150 184 184 184 184 184 184 184 26 26 26 26
 26 26 26 65 65 204 204 204 108 108 108 12 12 12 12 150 150 184 184 184
 184 184 184 184 184 26 26 26 26 26 26 26 65 65 204 204 204 108 108 108
 12 12 12 12 150 150 184 184 184 184 184 184 184 121 26 26 26 48 26 26
 16 16 65 204 204 204 35 35 35 183 183 183 202 41 41 184 184 184 184 184
 121 121 121 48 48 48 16 16 16 16 16 16 204 204 55 35 35 35 183 183
 183 41 41 41 41 124 124 124 187 187 132 132 132 16 16 16 16 16 16 16
 55 55 55 55 55 35 35 183 183 183 41 41 41 41 187 187 187 187 187 132
 132 132 16 16 16 16 16 16 16 55 55 55 55 55 55 95 95 125 41 41
 41 41 41 187 187 187 187 187 132 132 132 132 16 16 16 16 16 55 55 55
 55 55 55 95 95 95 95 41 41 41 41 41 187 187 187 187 187 132 132 132
 132 16 130 130 130 130 28 28 55 55 55 95 95 95 95 95 95 41 41 41
 41 187 187 187 187 187 132 132 132 132 246 130 130 130 244 28 28 28 55 55
 95 95 95 95 95 95 41 41 41 41 187 187 187 187 217 217 132 132 246 246
 130 130 244 244 244 167 167 167 167 95 95 95 95 95 95 87 87 87 87 215
 215 217 217 217 217 217 66 66 66 130 244 244 244 244 167 167 167 167 95 95
 95 95 76 76 87 87 87 87 215 215 217 217 217 217 217 66 66 66 244 244
 244 244 244 167 167 167 167 95 95 95 76 76 76 76 87 87 215 215 215 215
 217 217 217 217 66 66 66 38 38 244 244 244 167 167 157 157 157 157 180 76
 76 76 76 76 215 215 215 215 215 217 217 217 217 66 66 66 38 38 38 38
 244 157 157 157 157 157 157 180 76 76 76 76 76 215 215 215 215 215 215 217
 217 100 29 29 29 38 38 38 38 38 157 157 157 157 157 157 180 180 76 76
 76 215 215 215 215 215 215 215 100 100 100 29 29 29 29 38 38 38 38 157
 157 157 157 157 157 180 180 180 76 76 215 215 215 215 215 215 215 100 100 100
 29 29 29 29 38 38 38 38 157 157 157 157 157 157 180 214 214 214 214 215
 215 215 215 215 215 100 100 100 100 29 29 29 29 29 38 38 38 182 182 182
 157 157 214 214 214 214 214 214 214 128 128 128 128 128 100 100 100 100 29 29
 29 29 29 169 169 169 236 236 236 236 236 214 214 214 214 214 214 214 128 128
 128 128 128 128 100 100 100 29 29 29 29 169 169 169 169 169 236 236 236 236
 214 214 214 214 214 214 214 128 128 37 128 128 128 100 100 100 29 29 29 169
 169 169 169 169 169 236 236 236 236 214 214 214 214 1 1 1 128 128 128 128
 128 128 100 100 100 29 29 29 169 169 169 169 169 169 236 236 236 236 214 214
 214 1 1 1 1 181 128 128 128 128 128 140 140 140 146 146 146 169 169 169
 169 169 169 236 236 236 236 12 12 12 1 1 1 181 181 181 181 128 128 128
 146 146 146 146 146 146 169 169 169 169 169 169 169 236 108 12 12 12 12 12
 12 181 181 181 181 181 181 184 184 146 146 146 146 146 146 169 169 169 169 169
 169 65 65 108 108 12 12 12 12 12 12 150 150 150 150 150 184 184 184 146
 146 146 146 146 26 169 65 65 65 65 65 65 108 108 108 12 12 12 12 12
 150 150 150 150 150 184 184 184 146 146 146 146 146 26 26 65 65 65 65 65
 65 108 108 108 12 12 12 12 12 150 150 150 150 184 184 184 184 184 146 146
 146 26 26 26 26 65 65 65 65 65 108 108 108 108 12 12 12 12 150 150
 150 184 184 184 184 184 184 146 152 26 26 26 26 26 65 65 65 65 108 108
 108 108 108 12 12 12 12 150 150 150 184 184 184 184 184 184 152 152 152 26
 26 26 26 26 65 65 65 108 108 108 108 108 12 12 12 12 150 150 184 184
 184 184 184 184 184 152 152 152 26 26 26 26 26 65 65 204 204 204 108 108
 108 12 183 12 202 202 202 184 184 184 184 184 121 121 121 152 152 26 26 16
 16 16 16 16 204 204 35 35 35 35 183 183 183 202 202 202 187 187 187 121
 121 121 121 121 152 16 16 16 16 16 16 16 16 55 35 35 35 35 35 183
 183 183 183 202 41 187 187 187 187 187 121 121 121 132 144 16 16 16 16 16
 16 55 55 55 35 35 35 35 183 183 183 183 41 41 187 187 187 187 187 187
 132 132 132 144 16 16 16 16 16 16 55 55 55 55 35 35 125 125 125 125
 41 41 41 41 187 187 187 187 187 132 132 132 132 16 3 3 3 3 3 55
 55 55 55 55 95 95 125 125 125 41 41 41 41 187 187 187 187 187 132 132
 132 132 3 130 130 130 3 3 55 55 55 55 55 95 95 125 125 125 41 41
 41 41 187 187 187 187 187 132 132 132 246 246 130 130 130 244 244 210 210 210
 210 95 95 95 95 125 125 41 41 87 87 187 187 187 187 217 217 132 246 246
 246 130 130 244 244 244 244 210 210 210 210 95 95 95 95 87 87 87 87 87
 87 215 217 217 217 217 217 246 246 246 246 244 244 244 244 244 167 210 210 210
 95 95 95 76 76 87 87 87 87 215 215 217 217 134 217 217 246 246 246 246
 244 244 244 244 244 167 167 157 157 95 95 76 76 76 76 87 87 215 215 215
 215 217 217 217 217 246 246 246 38 244 244 244 244 244 157 157 157 157 180 180
 76 76 76 76 76 215 215 215 215 215 217 217 217 217 217 29 29 38 126 126
 126 126 157 157 157 157 157 180 180 180 76 76 76 76 215 215 215 215 215 215
 217 217 100 29 29 29 29 126 126 126 126 157 157 157 157 157 180 180 180 76
 76 76 215 215 215 215 215 215 215 100 100 100 29 29 29 29 126 126 126 126
 157 157 157 157 157 180 180 180 180 76 76 215 215 215 215 215 215 215 100 100
 100 29 29 29 29 29 126 126 126 157 157 157 157 157 180 180 214 214 214 214
 215 215 215 215 215 215 100 100 100 100 29 29 29 29 29 29 126 126 157 157
 236 236 236 214 214 214 214 214 214 214 128 128 128 128 128 100 100 100 100 29
 29 29 29 29 169 169 169 236 236 236 236 236 214 214 214 214 214 214 214 128
 128 128 128 128 128 100 100 100 29 29 29 29 169 169 169 169 169 236 236 236
 236 214 214 214 214 214 214 214 128 128 128 128 128 128 100 100 100 29 29 29
 169 169 169 169 169 169 236 236 236 236 214 214 214 214 1 1 1 128 128 128
 128 128 128 140 140 140 29 29 29 169 169 169 169 169 169 236 236 236 236 214
 214 214 1 1 1 1 181 128 128 128 128 128 140 140 140 140 146 146 169 169
 169 169 169 169 169 236 236 4 4 214 214 1 1 1 181 181 181 181 128 128
 128 140 140 146 146 146 146 169 169 169 169 169 169 169 236 108 12 12 12 12
 12 12 1 181 181 181 181 181 181 235 235 146 146 146 146 146 169 169 169 169
 169 65 65 65 108 108 12 12 12 12 12 12 150 150 150 150 150 184 235 235
 146 146 146 146 146 21 21 21 65 65 65 65 65 108 108 108 12 12 12 12
 12 150 150 150 150 150 184 235 235 146 146 146 146 146 26 26 65 65 65 65
 65 65 108 108 108 12 12 12 12 12 150 150 150 150 184 184 184 235 235 146
 146 146 26 26 26 26 65 65 65 65 65 108 108 108 108 12 12 12 12 150
 150 150 150 184 184 184 184 184 152 152 26 26 26 26 26 26 65 65 65 108
 108 108 108 108 12 12 12 12 150 150 150 184 184 184 184 121 121 152 152 152
 26 26 26 26 26 65 65 65 108 108 108 108 108 12 12 12 202 202 150 150
 184 184 184 121 121 121 152 152 152 152 26 26 26 26 86 86 86 108 108 108
 108 108 183 183 202 202 202 202 202 121 121 121 121 121 121 121 152 152 152 16
 16 16 16 16 86 86 86 35 35 35 35 183 183 183 202 202 202 202 121 121
 121 121 121 121 121 152 152 16 16 16 16 16 16 16 55 35 35 35 35 35
 183 183 183 183 202 202 187 187 187 121 121 121 121 121 144 144 16 16 16 16
 16 16 16 55 35 35 35 35 35 183 183 183 183 183 41 187 187 187 187 187
 121 121 132 144 144 144 3 3 3 3 3 55 55 55 35 35 35 125 125 125
 183 183 41 41 187 187 187 187 187 187 132 132 132 144 3 3 3 3 3 3
 55 55 55 55 35 35 125 125 125 125 125 41 41 41 187 187 187 187 187 132
 132 132 246 3 3 3 3 3 3 210 210 210 210 210 95 125 125 125 125 125
 41 41 41 187 187 187 187 187 132 132 246 246 246 246 130 130 244 244 210 210
 210 210 210 95 125 125 125 125 125 87 87 87 87 187 187 217 217 217 246 246
 246 246 246 130 244 244 244 244 210 210 210 210 210 145 125 125 125 87 87 87
 87 87 215 217 217 217 217 246 246 246 246 246 244 244 244 244 244 210 210 210
 210 145 145 162 162 76 87 87 87 87 215 215 215 217 217 217 217 246 246 246
 246 244 244 244 244 244 210 210 210 210 145 145 162 76 76 76 87 24 215 215
 215 215 217 217 217 217 246 246 246 178 244 244 244 126 126 157 157 157 180 180
 180 180 76 76 76 76 215 215 215 215 215 215 217 217 217 246 246 246 126 126
 126 126 126 126 157 157 157 180 180 180 180 180 76 76 76 215 215 215 215 215
 215 217 217 100 29 29 29 29 126 126 126 126 126 157 157 157 180 180 180 180
 180 76 76 215 215 215 215 215 215 215 100 100 100 29 29 29 29 126 126 126
 126 126 157 157 157 180 180 180 180 180 180 76 215 215 215 215 215 215 215 100
 100 100 100 29 29 29 29 126 126 126 126 157 157 157 180 180 180 214 214 214
 214 215 215 215 215 25 25 25 100 100 100 29 29 29 29 29 126 126 126 126
 236 236 236 236 214 214 214 214 214 214 214 128 128 128 128 25 25 100 100 100
 29 29 29 29 29 169 169 169 236 236 236 236 214 214 214 214 214 214 214 214
 154 154 154 154 25 25 25 100 100 29 29 29 29 169 169 169 169 169 236 236
 236 214 214 214 214 214 214 214 214 154 154 154 154 154 25 140 140 140 140 29
 29 169 169 169 169 169 169 236 236 236 214 214 214 214 214 214 214 1 154 154
 154 154 154 140 140 140 140 140 140 140 169 169 169 169 169 169 169 236 236 4
 4 4 214 214 1 1 1 181 154 154 154 154 140 140 140 140 140 140 140 169
 169 169 169 169 169 169 236 4 4 4 4 214 1 1 1 1 181 181 154 154
 154 140 140 140 140 140 140 140 169 169 169 169 169 169 169 10 10 10 4 12
 12 12 1 1 181 181 181 181 181 235 235 235 140 140 146 146 146 21 21 21
 21 21 65 65 10 10 10 10 12 12 12 12 12 150 150 150 150 150 235 235
 235 235 146 146 146 146 21 21 21 21 65 65 65 10 10 10 10 12 12 12
 12 12 150 150 150 150 150 235 235 235 235 235 146 146 146 21 21 21 65 65
 65 65 10 10 10 10 10 12 12 12 12 109 109 109 109 109 235 235 235 235
 235 238 238 238 26 26 26 65 65 65 65 10 10 10 10 10 12 12 12 12
 109 109 109 109 109 235 235 235 235 238 238 238 238 26 26 26 86 65 65 65
 10 10 10 10 10 10 12 12 202 109 109 109 109 184 121 121 235 238 238 152
 152 152 26 26 26 86 86 86 86 86 10 10 10 10 10 202 202 202 202 202
 109 109 121 121 121 121 121 238 152 152 152 26 26 26 86 86 86 86 86 86
 10 10 10 183 202 202 202 202 202 202 121 121 121 121 121 121 121 152 152 152
 16 16 16 16 86 86 86 86 35 35 35 35 183 183 202 202 202 202 202 121
 121 121 121 121 121 121 238 238 238 16 16 16 16 86 86 86 35 35 35 35
 35 183 183 183 202 202 202 202 121 121 121 121 121 121 121 144 144 144 3 3
 16 16 16 16 35 35 35 35 35 35 183 183 183 183 202 202 202 121 121 121
 121 121 121 121 144 144 144 3 3 3 3 3 3 55 35 35 35 35 125 125
 125 125 125 125 41 187 187 187 187 187 121 121 132 144 144 3 3 3 3 3
 3 210 210 210 210 35 35 125 125 125 125 125 125 41 187 187 187 187 187 187
 132 132 246 246 3 3 3 3 3 3 210 210 210 210 210 35 125 125 125 125
 125 125 24 187 187 187 187 187 187 132 246 246 246 246 246 3 3 3 3 210
 210 210 210 210 145 125 125 125 125 125 24 24 87 87 187 187 217 217 246 246
 246 246 246 246 246 244 244 244 210 210 210 210 210 145 145 162 162 162 24 24
 24 24 215 215 215 217 217 217 246 246 246 246 246 246 244 244 244 244 210 210
 210 210 145 145 162 162 162 24 24 24 24 215 215 215 217 217 217 246 246 246
 246 246 244 244 244 244 244 210 210 210 145 145 145 162 162 162 24 24 24 24
 215 215 215 217 217 217 217 246 246 246 178 178 126 126 126 126 126 157 157 180
 180 180 180 162 162 76 24 215 215 215 215 215 215 217 217 217 246 246 178 178
 178 126 126 126 126 126 157 157 180 180 180 180 218 218 76 215 215 215 215 215
 215 215 217 217 100 29 29 178 178 178 126 126 126 126 157 157 157 180 180 180
 180 180 218 218 215 215 215 215 215 25 25 25 100 100 29 29 178 178 178 126
 126 126 126 157 157 157 180 180 180 180 218 218 218 215 215 215 215 25 25 25
 25 100 100 29 29 29 29 178 126 126 126 126 157 157 157 180 180 180 214 214
 214 214 215 215 215 25 25 25 25 25 100 100 29 29 29 29 178 126 126 126
 126 236 236 236 180 180 214 214 214 214 214 214 128 128 25 25 25 25 25 100
 100 29 29 29 29 143 169 169 169 236 236 236 236 214 214 214 214 214 214 214
 214 154 154 154 154 25 25 25 25 140 29 29 29 147 169 169 169 169 169 236
 236 236 214 214 214 214 214 214 214 214 154 154 154 154 154 25 140 140 140 140
 140 147 169 169 169 169 169 169 236 236 4 4 4 4 214 214 214 214 214 154
 154 154 154 154 154 140 140 140 140 140 140 169 169 169 169 169 169 169 236 4
 4 4 4 4 214 214 1 1 154 154 154 154 154 140 140 140 140 140 140 140
 169 169 169 169 169 169 169 4 4 4 4 4 4 214 1 1 1 181 154 154
 154 154 140 140 140 140 140 140 140 21 21 21 21 21 21 10 10 10 4 4
 4 4 12 1 109 109 109 109 109 102 235 235 235 140 140 140 140 140 21 21
 21 21 21 65 10 10 10 10 10 10 12 12 12 109 109 109 109 109 109 235
 235 235 235 235 146 146 146 21 21 21 21 21 65 10 10 10 10 10 10 12
 12 12 109 109 109 109 109 109 235 235 235 235 235 235 146 238 21 21 21 21
 65 65 10 10 10 10 10 10 10 12 12 109 109 109 109 109 109 235 235 235
 235 235 235 238 238 21 21 21 86 86 86 10 10 10 10 10 10 10 12 12
 109 109 109 109 109 109 235 235 235 235 238 238 238 238 238 26 86 86 86 86
 86 10 10 10 10 10 10 10 202 202 109 109 109 109 109 235 235 235 238 238
 238 238 238 238 238 86 86 86 86 86 86 10 10 10 10 10 202 202 202 202
 202 202 121 121 121 121 121 121 238 238 238 238 238 238 86 86 86 86 86 86
 86 10 10 10 202 202 202 202 202 202 202 121 121 121 121 121 121 238 238 238
 238 238 16 86 86 86 86 86 86 196 196 196 196 183 202 202 202 202 202 202
 121 121 121 121 121 121 121 238 238 238 3 3 3 16 86 86 86 196 196 196
 196 196 183 183 202 202 202 202 202 121 121 121 121 121 121 103 103 144 144 3
 3 3 3 3 86 196 196 196 196 196 196 183 183 183 202 202 202 202 121 121
 121 121 121 121 103 103 144 144 3 3 3 3 3 3 55 196 196 196 196 196
 125 125 125 125 202 202 187 187 187 121 121 121 103 103 103 144 3 3 3 3
 3 3 210 210 210 210 196 196 125 125 125 125 125 125 125 187 187 187 187 187
 187 246 246 246 246 3 3 3 3 3 3 210 210 210 210 210 196 125 125 125
 125 125 125 24 24 187 187 187 187 246 246 246 246 246 246 246 3 3 3 3
 59 59 210 210 210 145 145 162 162 162 162 24 24 24 87 187 187 217 217 246
 246 246 246 246 246 246 244 244 244 59 210 210 210 210 145 145 162 162 162 162
 24 24 24 215 215 215 217 217 246 246 246 246 246 246 246 244 244 244 6 210
 210 210 145 145 145 162 162 162 162 24 24 24 215 215 215 217 217 217 246 246
 246 246 178 178 178 244 6 6 6 210 210 145 145 145 162 162 162 162 24 24
 24 215 215 215 217 217 217 246 246 246 246 178 178 178 126 126 6 6 93 93
 145 145 145 162 162 162 162 24 215 215 215 215 215 215 217 217 246 246 246 178
 178 178 178 126 126 126 126 93 93 180 180 180 218 218 218 218 215 215 215 215
 215 215 215 25 25 100 29 178 178 178 178 178 126 126 126 93 93 93 180 180
 180 180 218 218 218 215 215 215 215 25 25 25 25 25 100 29 178 178 178 178
 178 126 126 126 126 93 93 180 180 180 218 218 218 218 218 215 25 25 25 25
 25 25 25 100 29 29 178 178 178 178 126 126 126 126 93 93 180 180 180 218
 218 218 218 218 25 25 25 25 25 25 25 25 100 29 29 178 178 178 178 126
 126 126 126 93 93 180 214 214 214 214 214 214 214 154 154 25 25 25 25 25
 25 100 29 29 29 143 143 143 143 169 119 119 119 119 119 214 214 214 214 214
 214 214 154 154 154 154 25 25 25 25 147 147 147 147 147 143 143 169 169 169
 119 119 119 4 4 214 214 214 214 214 214 154 154 154 154 154 25 140 140 140
 140 147 147 147 169 169 169 169 169 119 119 4 4 4 4 4 214 214 214 214
 154 154 154 154 154 25 140 140 140 140 140 147 169 169 169 169 169 169 119 119
 4 4 4 4 4 214 214 214 214 154 154 154 154 154 140 140 140 31 140 140
 140 21 21 21 205 205 205 205 4 4 4 4 4 4 4 1 1 109 102 102
 102 102 102 140 140 140 140 140 140 140 21 21 21 205 205 205 10 10 10 4
 4 4 4 4 109 109 109 109 109 102 102 235 235 235 140 140 140 140 140 21
 21 21 205 205 205 10 10 10 10 10 10 4 4 109 109 109 109 109 109 102
 235 235 235 235 235 140 140 140 21 21 21 205 205 205 10 10 10 10 10 10
 10 12 109 109 109 109 109 109 102 235 235 235 235 235 235 238 238 21 21 21
 205 205 205 10 10 10 10 10 10 10 10 109 109 109 109 109 109 109 235 235
 235 235 235 238 238 238 238 21 21 86 86 86 86 10 10 10 10 10 10 10
 109 109 109 109 109 109 109 235 235 235 235 238 238 238 238 238 238 86 86 86
 86 86 10 10 10 10 10 10 10 202 202 202 109 109 109 109 235 43 43 238
 238 238 238 238 238 238 86 86 86 86 86 86 10 10 10 10 10 202 202 202
 202 202 202 109 121 121 121 43 121 238 238 238 238 238 238 86 86 86 86 86
 86 10 10 10 10 10 202 202 202 202 202 202 121 121 121 121 121 121 238 238
 238 238 238 238 86 86 86 86 86 86 196 196 196 196 15 202 202 198 202 202
 202 121 121 121 121 121 121 121 238 238 238 3 3 3 86 86 86 86 196 196
 196 196 196 15 202 202 202 202 202 202 34 34 121 121 121 121 103 103 103 144
 3 3 3 3 3 86 196 196 196 196 196 196 15 183 202 202 202 202 202 34
 34 34 121 121 103 103 103 103 3 3 3 3 3 3 3 196 196 196 196 196
 196 15 125 125 202 202 202 202 34 34 34 121 121 103 103 103 103 3 3 3
 3 3 3 59 59 59 196 196 196 196 125 125 125 125 125 202 202 34 34 34
 121 121 103 103 246 246 3 3 3 3 3 3 59 59 59 59 59 196 106 106
 106 106 106 106 24 24 187 34 34 187 246 246 246 246 246 246 246 3 3 3
 59 59 59 59 59 59 145 145 162 162 162 162 24 24 24 87 187 197 197 197
 246 246 246 246 246 246 246 3 231 59 59 59 59 59 59 145 145 162 162 162
 162 24 24 24 215 215 197 197 197 197 246 246 246 246 246 246 178 6 6 6
 59 59 59 145 145 145 162 162 162 162 24 24 24 215 215 197 197 197 197 246
 246 246 246 178 178 178 6 6 6 6 6 93 145 145 145 162 162 162 162 24
 24 24 215 215 197 197 197 197 197 246 246 246 178 178 178 6 6 6 6 93
 93 93 145 145 162 162 162 162 24 215 215 215 215 215 197 197 197 197 246 178
 178 178 178 178 178 6 6 93 93 93 93 180 218 218 218 218 218 218 215 215
 215 25 25 25 25 25 178 178 178 178 178 178 178 178 126 6 93 93 93 93
 180 218 218 218 218 218 218 215 25 25 25 25 25 25 25 100 178 178 178 178
 178 178 178 126 126 93 93 93 93 180 218 218 218 218 218 218 25 25 25 25
 25 25 25 25 25 178 178 178 178 178 178 178 126 126 93 93 93 93 180 218
 218 218 218 218 218 25 25 25 25 25 25 25 25 25 29 178 178 143 143 143
 143 126 126 93 93 93 93 214 214 214 214 214 214 214 154 154 154 25 25 25
 25 25 25 29 29 29 143 143 143 143 143 119 119 119 119 119 119 214 214 137
 214 214 154 154 154 154 154 25 25 25 25 147 147 147 147 147 143 143 62 62
 119 119 119 119 119 119 4 214 214 214 214 154 154 154 154 154 154 25 140 140
 140 147 147 147 147 62 62 62 62 119 119 119 119 119 4 4 4 214 214 214
 154 154 154 154 154 154 25 140 140 140 140 147 147 62 62 62 205 205 205 119
 119 119 119 4 4 4 4 214 214 214 154 154 154 154 154 140 140 140 140 140
 140 147 21 21 205 205 205 205 205 119 119 4 4 4 4 4 4 1 102 102
 102 102 102 102 140 140 140 140 140 140 140 21 21 205 205 205 205 205 10 10
 10 4 4 4 4 109 109 109 109 102 102 102 102 235 235 140 140 140 140 140
 21 21 205 205 205 205 205 10 10 10 10 10 4 4 109 109 109 109 109 102
 102 235 235 235 235 235 140 140 140 21 21 205 205 205 205 10 10 10 10 10
 10 10 113 113 109 109 109 109 109 102 235 235 235 235 235 235 238 238 21 21
 205 205 205 205 10 10 10 10 10 10 10 113 113 109 109 109 109 109 102 235
 235 235 235 235 235 238 238 238 21 205 205 86 86 86 10 10 10 10 10 10
 113 113 113 109 109 109 109 109 235 235 43 43 238 238 238 238 238 238 86 86
 86 86 86 10 10 10 10 10 10 113 113 113 113 113 109 109 43 43 43 43
 43 238 238 238 238 238 238 86 86 86 86 86 86 10 10 10 10 10 202 202
 202 202 202 202 64 43 43 43 43 43 238 238 238 238 238 238 86 86 86 86
 86 86 10 10 10 10 10 202 202 202 202 202 202 64 34 43 43 43 43 238
 238 238 238 238 238 86 86 86 86 86 86 196 196 196 15 15 202 202 202 202
 202 202 34 34 34 121 121 121 121 238 238 238 238 238 3 86 86 86 86 196
 196 196 196 15 15 15 202 202 202 202 202 34 34 34 34 121 121 103 103 103
 238 3 3 3 3 86 86 196 196 196 196 196 15 15 15 202 202 202 202 34
 34 34 34 34 121 103 103 103 103 3 3 3 3 3 3 196 196 196 196 196
 196 15 15 15 125 202 202 202 34 34 34 34 34 121 103 103 103 103 3 3
 3 3 3 32 33 33 33 196 196 196 15 15 106 106 106 106 202 34 34 34
 34 34 121 103 103 103 246 231 231 231 231 231 231 59 33 33 59 59 196 106
 106 106 106 106 106 129 129 129 34 34 34 197 197 246 246 246 231 231 231 231
 231 231 59 59 59 59 59 145 106 106 106 106 106 106 24 129 129 129 197 197
 197 197 246 246 246 231 231 231 231 231 231 59 59 59 59 59 145 145 162 162
 162 162 24 24 24 129 197 197 197 197 197 197 246 246 231 231 231 231 6 6
 6 6 59 59 145 145 145 162 162 162 162 24 24 24 215 197 197 197 197 197
 197 246 246 231 178 178 178 6 6 6 6 6 93 145 145 145 162 162 162 162
 162 24 24 215 215 197 197 197 197 197 197 246 178 178 178 178 6 6 6 6
 93 93 93 145 145 162 162 162 162 162 215 215 215 215 197 197 197 197 197 197
 178 178 178 178 178 178 6 6 93 93 93 93 93 218 218 218 218 218 218 215
 215 215 25 25 25 197 197 197 178 178 178 178 178 178 178 6 6 93 93 93
 93 93 218 218 218 218 218 218 215 25 25 25 25 25 25 25 25 178 178 178
 178 178 178 178 6 93 93 93 93 93 93 218 218 218 218 137 137 25 25 25
 25 25 25 25 25 25 178 178 178 143 143 143 143 143 93 93 93 93 93 93
 137 137 137 137 137 137 25 25 25 25 25 25 25 25 25 29 143 143 143 143
 143 143 143 93 93 93 93 93 137 137 137 137 137 137 137 154 154 154 25 25
 25 25 25 25 147 147 143 62 143 143 143 143 143 119 119 119 119 119 119 163
 137 163 163 163 154 154 154 154 25 25 25 147 147 147 147 147 62 62 62 62
 62 62 119 119 119 119 119 119 163 163 163 163 163 154 154 154 154 154 25 140
 140 147 147 147 147 62 62 62 62 62 119 119 119 119 119 119 119 163 163 163
 163 163 154 154 154 154 154 140 140 140 140 147 147 147 62 62 62 205 205 119
 119 119 119 119 119 4 4 163 163 163 163 102 102 102 154 154 140 140 140 140
 140 140 147 62 62 205 205 205 205 119 119 119 119 119 4 4 4 4 163 102
 102 102 102 102 102 140 140 140 140 140 140 140 21 205 205 205 205 205 205 119
 119 119 119 4 4 4 113 109 109 102 102 102 102 102 235 235 140 140 140 140
 140 21 205 205 205 205 205 205 10 10 10 10 10 4 113 113 109 109 109 102
 102 102 102 235 235 235 222 222 222 222 21 205 205 205 205 205 205 10 10 10
 10 10 10 113 113 113 109 109 109 102 102 102 235 235 235 222 222 222 222 21
 205 205 205 205 205 10 10 10 10 10 10 10 113 113 113 113 109 109 109 102
 235 235 235 235 222 222 238 238 238 205 205 205 205 86 86 10 10 10 10 10
 172 113 113 113 113 113 109 109 43 43 43 43 43 238 238 238 238 238 205 86
 86 86 86 86 10 10 10 10 10 10 113 113 113 113 113 113 113 43 43 43
 43 43 238 238 238 238 238 238 86 86 86 86 86 86 10 10 10 10 10 113
 113 113 113 113 113 64 43 43 43 43 43 43 238 238 238 238 238 8 86 86
 86 86 86 10 10 10 10 15 202 202 202 202 202 64 64 64 43 43 43 43
 43 238 238 238 238 238 8 86 86 86 86 86 196 196 15 15 15 202 202 202
 202 202 64 64 34 34 34 43 43 43 238 238 238 238 231 231 86 86 86 86
 196 196 15 15 15 15 15 202 202 202 202 34 34 34 34 34 34 121 103 103
 103 238 231 231 231 231 32 196 196 196 196 15 15 15 15 15 52 202 202 202
 34 34 34 34 34 34 103 103 103 103 231 231 231 231 231 32 33 33 196 196
 196 15 15 15 15 52 202 202 34 34 34 34 34 34 34 103 103 103 103 231
 231 231 231 231 32 33 33 33 33 196 15 15 15 106 106 106 106 129 129 34
 34 34 34 34 103 103 75 75 231 231 231 231 231 32 33 33 33 33 33 15
 106 106 106 106 106 106 129 129 129 129 129 34 197 197 75 75 75 231 231 231
 231 231 32 33 33 33 33 33 33 106 106 106 106 106 106 129 129 129 129 197
 197 197 197 197 75 75 231 231 231 231 231 231 6 33 33 33 33 145 106 106
 106 106 106 106 129 129 129 129 197 197 197 197 197 75 75 231 231 231 231 6
 6 6 6 33 33 33 145 145 162 162 162 162 162 129 129 129 129 197 197 197
 197 197 197 75 231 231 231 231 6 6 6 6 6 6 145 145 145 145 162 162
 162 162 24 129 129 197 197 197 197 197 197 197 75 231 178 178 178 6 6 6
 6 93 93 93 145 145 162 162 162 162 162 215 215 215 197 197 197 197 197 240
 240 178 178 178 178 178 6 6 6 6 93 93 93 93 218 218 218 218 218 218
 215 215 25 25 25 240 240 240 240 240 178 178 178 178 178 178 6 6 93 93
 93 93 93 218 218 218 218 218 218 215 25 25 25 25 25 25 240 240 178 178
 178 143 143 143 143 6 93 93 93 93 93 93 137 137 137 137 137 137 137 25
 25 25 25 25 25 25 25 143 143 143 143 143 143 143 6 93 93 93 93 93
 93 137 137 137 137 137 137 25 25 25 25 25 25 25 25 25 143 143 143 143
 143 143 143 143 93 93 93 119 119 119 137 137 137 137 137 137 154 154 25 25
 25 25 25 25 25 147 147 143 62 62 62 62 62 173 173 173 119 119 119 163
 163 163 163 163 163 211 211 211 13 13 13 13 147 147 127 127 127 62 62 62
 62 62 173 173 173 119 119 119 163 163 163 163 163 163 211 211 211 211 13 13
 140 140 147 127 127 147 62 62 62 62 62 173 173 119 119 119 119 119 163 163
 163 163 163 211 211 211 154 154 140 140 140 140 127 147 147 62 62 62 62 62
 173 173 119 119 119 119 119 163 163 163 163 163 102 102 102 102 102 140 140 140
 140 127 127 127 62 62 62 205 205 205 168 119 119 119 119 119 4 163 163 163
 102 102 102 102 102 102 102 140 140 140 140 140 127 205 205 205 205 205 205 168
 168 119 119 119 119 4 113 113 113 109 102 102 102 102 102 102 235 222 222 222
 140 127 205 205 205 205 205 205 205 168 10 136 136 172 136 113 113 113 113 89
 102 102 102 102 235 222 222 222 222 222 222 205 205 205 205 205 205 205 10 10
 10 172 172 172 113 113 113 113 113 113 102 102 102 235 222 222 222 222 222 222
 205 205 205 205 205 205 205 10 10 10 172 172 172 113 113 113 113 113 113 113
 102 235 235 222 222 222 222 222 222 205 205 205 205 205 205 86 10 10 10 172
 172 172 113 113 113 113 113 113 113 113 43 43 43 43 222 222 238 238 238 205
 8 8 8 86 86 10 10 10 172 172 172 113 113 113 113 113 113 113 43 43
 43 43 43 43 238 238 238 238 8 8 8 8 86 86 10 10 10 10 172 172
 113 113 113 113 113 113 64 43 43 43 43 43 43 238 238 238 238 8 8 8
 8 86 86 86 10 10 10 172 15 113 113 113 113 113 64 64 64 120 120 120
 120 120 238 238 238 238 8 8 8 8 86 86 86 196 15 15 15 15 52 52
 52 202 64 64 64 64 34 120 120 120 120 120 238 238 231 8 8 8 8 61
 61 61 196 15 15 15 15 52 52 52 202 64 64 64 34 34 34 120 120 120
 120 103 238 231 231 231 32 32 32 61 196 196 15 15 15 15 52 52 52 52
 64 64 34 34 34 34 34 120 103 103 103 231 231 231 231 32 32 32 61 33
 196 15 15 15 15 52 52 52 52 52 34 34 34 34 34 34 34 103 75 231
 231 231 231 231 32 32 32 33 33 33 15 15 15 15 106 106 106 106 129 129
 129 34 34 34 34 34 75 75 75 231 231 231 231 32 32 32 33 33 33 33
 15 106 106 106 106 106 106 129 129 129 129 129 34 197 75 75 75 75 231 231
 231 231 231 32 32 33 33 33 33 33 106 106 106 106 106 106 129 129 129 129
 129 197 197 197 75 75 75 231 231 231 231 231 32 32 33 33 33 33 145 106
 106 106 106 106 106 129 129 129 129 197 197 197 197 206 75 75 231 231 231 231
 231 6 6 6 33 33 33 145 106 106 106 106 106 106 129 129 129 129 240 206
 206 197 240 75 75 231 231 231 231 6 6 6 6 6 6 145 145 145 145 162
 162 162 162 129 129 129 240 240 240 240 240 240 240 75 231 178 178 6 6 6
 6 6 6 93 93 145 145 162 162 162 162 77 77 129 129 240 240 240 240 240
 240 240 240 178 178 178 178 6 6 6 6 93 93 93 93 218 218 218 218 218
 218 77 129 240 240 240 240 240 240 240 240 240 178 143 143 143 6 6 6 93
 93 93 93 93 137 137 137 137 137 137 137 13 13 13 13 13 240 240 240 240
 99 178 143 143 143 143 6 93 93 93 93 93 93 137 137 137 137 137 137 137
 13 13 13 13 13 13 240 226 226 143 143 143 143 143 143 143 93 93 93 93
 93 93 137 137 137 137 137 137 211 13 13 13 13 13 13 13 226 127 143 143
 143 143 143 143 143 93 93 119 119 119 119 137 137 137 137 137 137 211 13 13
 13 13 13 13 13 127 127 127 143 62 62 62 62 62 173 173 173 119 119 119
 163 163 163 163 163 211 211 211 211 13 13 13 13 127 127 127 127 127 62 62
 62 62 62 173 173 173 119 119 119 163 163 163 163 163 163 211 211 211 211 211
 13 13 127 127 127 127 127 62 62 62 62 62 173 173 173 119 119 119 163 163
 163 163 163 163 211 211 211 211 211 13 140 127 127 127 127 127 62 62 62 62
 62 173 173 119 119 119 119 119 163 163 163 163 163 211 102 102 211 211 140 140
 127 127 127 127 127 62 62 62 62 205 168 168 119 119 119 119 119 163 163 163
 163 89 102 102 102 102 102 102 200 200 222 2 2 2 62 62 205 205 205 168
 168 168 168 136 136 136 136 113 113 89 89 89 102 102 102 102 200 200 200 222
 200 2 2 205 205 205 205 205 168 168 168 168 136 136 136 136 113 113 113 89
 89 89 102 102 102 200 200 222 222 222 222 222 205 205 205 205 205 168 168 168
 168 136 136 136 136 113 113 113 113 89 89 89 102 102 222 222 222 222 222 222
 222 205 205 205 205 205 168 168 168 168 136 172 172 172 113 113 113 113 113 89
 89 89 89 222 222 222 222 222 200 200 8 8 8 8 8 123 168 168 10 172
 172 172 172 113 113 113 113 113 89 89 89 43 43 222 222 222 200 200 200 8