# vtk DataFile Version 2.0
Data set from ImportExport Version 6.5.171.b0b162591
ASCII

DATASET RECTILINEAR_GRID
DIMENSIONS 30 30 30
X_COORDINATES 30 float
-1.250000 1.250000 3.750000 6.250000 8.750000 11.250000 13.750000 16.250000 18.750000 21.250000 23.750000 26.250000 28.750000 31.250000 33.750000 36.250000 38.750000 41.250000 43.750000 46.250000 48.750000 
51.250000 53.750000 56.250000 58.750000 61.250000 63.750000 66.250000 68.750000 71.250000 
Y_COORDINATES 30 float
-1.250000 1.250000 3.750000 6.250000 8.750000 11.250000 13.750000 16.250000 18.750000 21.250000 23.750000 26.250000 28.750000 31.250000 33.750000 36.250000 38.750000 41.250000 43.750000 46.250000 48.750000 
51.250000 53.750000 56.250000 58.750000 61.250000 63.750000 66.250000 68.750000 71.250000 
Z_COORDINATES 30 float
-1.250000 1.250000 3.750000 6.250000 8.750000 11.250000 13.750000 16.250000 18.750000 21.250000 23.750000 26.250000 28.750000 31.250000 33.750000 36.250000 38.750000 41.250000 43.750000 46.250000 48.750000 
51.250000 53.750000 56.250000 58.750000 61.250000 63.750000 66.250000 68.750000 71.250000 
CELL_DATA 24389
SCALARS FeatureIds int 1
LOOKUP_TABLE default
 11 11 11 11 11 11 11 11 11 76 76 76 76 76 76 89 89 89 122 122
 122 122 122 122 122 209 209 209 209 11 11 11 11 11 11 11 11 11 237 237
 76 76 76 76 89 89 89 122 122 122 122 122 122 122 209 209 209 209 11 11
 11 11 11 11 33 33 237 237 237 76 76 76 76 89 89 122 122 122 122 122
 122 122 122 209 209 209 209 11 11 11 11 11 33 33 33 237 237 237 237 76
 76 76 89 83 122 122 122 122 122 122 122 122 209 209 209 209 209 11 11 11
 11 33 33 33 237 237 237 237 237 76 76 89 83 122 122 122 122 122 122 122
 122 209 209 209 209 234 234 234 234 234 234 33 33 123 123 123 123 123 123 123
 123 83 122 122 122 81 81 81 122 122 209 209 209 209 234 234 234 234 234 234
 234 10 123 123 123 123 123 123 123 123 52 52 52 81 81 81 81 81 81 81
 195 195 195 234 234 234 234 234 234 10 10 10 123 123 123 123 123 55 55 52
 52 52 81 81 81 81 81 81 81 195 195 195 234 234 234 234 234 234 10 10
 10 10 123 123 123 55 55 55 52 52 52 52 81 81 81 81 81 81 195 195
 195 234 234 234 234 234 10 10 10 10 10 123 123 55 55 55 55 52 52 172
 172 172 81 81 81 81 81 195 195 195 112 234 234 234 234 10 10 10 95 95
 95 55 55 55 55 55 52 52 172 172 172 81 81 81 81 112 112 112 112 112
 120 120 120 120 10 10 10 95 95 95 55 55 55 55 55 151 52 172 172 172
 81 81 185 185 185 112 112 112 112 120 120 120 120 2 2 2 2 2 2 55
 55 55 55 151 151 151 151 151 151 81 185 185 185 185 185 112 112 126 120 120
 120 120 2 2 2 2 2 2 2 4 4 4 151 151 151 151 151 151 151 185
 185 185 185 185 185 112 126 126 120 120 2 2 2 2 2 2 2 2 100 100
 100 151 151 151 151 151 151 247 247 185 185 185 185 185 185 126 126 126 120 2
 2 2 2 2 2 2 100 100 100 100 100 151 151 151 151 247 247 247 247 185
 185 185 185 185 126 126 126 2 2 2 2 2 2 2 82 100 100 100 100 100
 151 221 221 221 247 247 247 247 233 233 233 233 233 126 126 126 2 2 2 2
 2 2 82 82 82 100 100 100 100 100 221 221 247 247 247 247 247 247 88 88
 251 251 251 136 136 2 2 2 2 82 82 82 82 82 100 100 100 100 100 60
 60 60 247 247 247 247 88 88 88 251 251 251 251 136 232 232 232 232 82 82
 82 82 82 82 100 100 100 100 60 60 60 213 213 213 213 88 88 251 251 251
 251 251 251 232 232 232 232 82 82 82 82 82 82 100 100 100 60 60 60 60
 213 213 213 213 88 251 251 251 251 251 251 251 232 232 232 232 82 82 82 82
 82 138 80 80 80 80 60 60 60 213 213 213 251 251 251 251 251 251 251 251
 228 232 232 232 232 82 82 82 138 138 138 80 80 80 80 32 32 32 32 213
 213 34 251 251 251 251 251 251 228 228 228 232 232 232 141 141 141 138 138 138
 80 80 80 80 32 32 32 32 32 34 34 34 251 251 251 251 5 228 228 228
 228 232 232 141 141 141 141 141 141 141 80 80 80 32 32 32 32 34 34 34
 34 5 5 5 5 5 228 228 228 228 232 141 141 141 141 141 141 141 141 140
 80 80 32 31 31 31 34 34 34 34 5 5 5 5 5 228 228 228 228 228
 58 141 141 141 141 141 141 141 140 80 80 32 31 31 31 34 34 34 34 5
 5 5 5 5 228 228 228 11 11 11 176 176 141 141 141 141 141 76 76 76
 32 31 31 31 34 34 34 34 5 5 5 5 11 11 11 11 11 11 11 11
 176 176 141 141 76 76 76 76 76 76 31 31 31 34 34 34 34 5 5 5
 5 11 11 11 11 11 11 11 11 176 176 76 76 76 76 76 76 89 83 83
 122 122 122 122 122 122 209 209 209 209 11 11 11 11 11 11 11 11 237 237
 237 76 76 76 76 76 83 83 83 122 122 122 122 122 122 209 209 209 209 209
 11 11 11 11 11 11 237 237 237 237 237 76 76 76 76 83 83 83 122 122
 122 122 122 122 209 209 209 209 209 11 11 11 11 11 33 237 237 237 237 237
 237 76 76 76 83 83 122 122 122 122 122 122 122 209 209 209 209 209 11 11
 11 11 33 33 237 237 237 237 237 237 237 76 83 83 83 122 122 122 122 122
 122 122 209 209 209 209 209 234 234 234 234 234 92 92 237 237 123 123 123 123
 7 7 83 83 122 122 122 81 122 122 122 209 209 209 209 195 234 234 234 234
 234 92 92 123 123 123 123 123 123 123 7 52 52 52 81 81 81 81 81 81
 195 195 195 195 195 234 234 234 234 234 10 10 10 123 123 123 123 123 55 55
 52 52 52 52 81 81 81 81 81 195 195 195 195 195 234 234 234 234 234 10
 95 95 123 123 123 123 123 55 55 52 52 52 52 81 81 81 81 81 195 195
 195 195 195 234 234 234 234 10 10 95 95 95 123 123 123 55 55 55 52 52
 52 172 172 81 81 81 81 195 195 195 195 112 112 234 234 234 10 95 95 95
 95 95 55 55 55 55 55 52 52 52 172 172 81 81 81 185 112 112 112 112
 112 112 120 120 120 2 95 95 95 95 95 55 55 55 55 55 52 52 52 172
 172 81 81 185 185 185 112 112 112 112 112 120 120 2 2 2 2 95 95 95
 95 4 4 4 4 151 151 151 151 241 241 185 185 185 185 185 112 112 126 120
 120 120 2 2 2 2 2 2 2 2 4 4 4 4 4 151 151 151 241 241
 185 185 185 185 185 185 112 126 126 120 120 2 2 2 2 2 2 2 2 4
 4 4 4 4 151 221 221 247 247 185 185 185 185 185 185 185 126 126 126 2
 2 2 2 2 2 2 2 100 100 100 100 4 4 221 221 221 247 247 247 185
 185 185 185 185 185 126 126 126 2 2 2 2 2 2 2 82 100 100 100 100
 100 100 221 221 221 247 247 247 247 233 233 233 233 233 136 136 136 2 2 2
 2 2 2 82 82 82 100 100 100 100 221 221 221 221 247 247 247 247 233 233
 233 233 251 136 136 136 136 2 2 2 82 82 82 82 82 100 100 100 100 100
 221 221 221 247 247 247 247 233 233 233 251 251 251 136 136 136 232 232 82 82
 82 82 82 82 100 100 100 100 100 221 221 221 247 247 247 247 251 251 251 251
 251 251 136 136 232 232 232 82 82 82 82 82 82 82 100 100 100 100 60 221
 47 47 213 213 251 251 251 251 251 251 251 251 251 232 232 232 232 82 82 82
 82 138 138 138 80 80 80 47 47 47 47 47 47 251 251 251 251 251 251 251
 251 251 232 232 232 232 82 82 82 138 138 138 138 80 80 80 47 47 47 47
 47 47 251 251 251 251 251 251 251 251 228 228 232 232 232 82 82 138 138 138
 138 138 80 80 80 47 47 47 47 47 30 34 251 251 251 251 251 5 228 228
 228 228 232 232 141 141 141 138 138 138 138 80 80 80 47 47 47 47 30 30
 34 34 5 5 5 5 5 228 228 228 228 232 58 58 141 141 141 141 141 215
 215 80 205 205 47 30 30 30 30 34 34 5 5 5 5 5 5 228 228 11
 11 58 58 176 176 141 141 141 141 215 215 205 205 47 30 30 30 30 34 34
 5 5 5 5 5 11 11 11 11 11 11 176 176 176 176 141 141 76 76 76
 76 205 47 30 30 30 34 34 34 5 5 5 5 11 11 11 11 11 11 11
 11 176 176 176 176 76 76 76 76 76 76 83 30 30 30 34 34 34 5 5
 5 5 11 11 11 11 11 11 11 176 176 176 176 76 76 76 76 76 83 83
 83 83 122 122 122 122 122 209 209 209 209 209 11 11 11 11 11 11 176 237
 237 237 76 76 76 76 76 83 83 83 83 122 122 122 122 122 209 209 209 209
 209 11 11 11 11 11 11 237 237 237 237 237 76 76 76 83 83 83 83 83
 122 122 122 122 122 209 209 209 209 209 11 11 11 11 11 92 92 237 237 237
 237 237 237 76 83 83 83 83 122 122 122 122 122 122 209 209 209 209 209 209
 11 11 11 92 92 92 237 237 237 237 237 237 7 83 83 83 83 122 122 122
 122 122 122 209 209 209 209 209 209 234 234 234 92 92 92 92 237 237 237 237
 237 7 7 83 83 83 122 122 122 122 122 122 209 209 209 209 195 195 234 234
 234 92 92 92 92 123 123 123 123 123 7 7 52 52 52 52 81 81 81 81
 81 195 195 195 195 195 195 234 234 234 211 92 92 123 123 123 123 123 123 7
 7 52 52 52 52 81 81 81 81 81 195 195 195 195 195 195 234 234 234 211
 95 95 95 123 123 123 123 123 123 52 52 52 52 52 81 81 81 81 81 195
 195 195 195 195 195 234 211 211 211 95 95 95 95 123 123 123 123 123 52 52
 52 52 52 172 81 81 81 81 195 195 195 195 112 112 235 235 211 211 95 95
 95 95 95 123 123 123 250 52 52 52 52 172 172 81 81 81 112 112 112 112
 112 112 112 235 235 211 95 95 95 95 95 95 95 164 4 4 52 52 52 52
 172 241 241 185 185 185 185 112 112 112 112 112 235 235 2 2 2 95 95 95
 95 164 4 4 4 4 4 52 52 241 241 241 241 185 185 185 185 112 112 112
 112 120 2 2 2 2 2 2 2 2 2 4 4 4 4 4 4 221 241 241
 241 241 185 185 185 185 185 112 99 99 120 2 2 2 2 2 2 2 2 2
 4 4 4 4 4 221 221 221 221 241 185 185 185 185 185 185 112 99 126 126
 2 2 2 2 2 2 2 2 100 100 100 4 4 4 221 221 221 221 247 247
 185 185 185 185 185 185 136 136 2 2 2 2 2 2 2 2 82 100 100 100
 100 100 221 221 221 221 221 247 247 233 233 233 233 233 233 136 136 136 2 2
 2 2 2 2 82 82 100 100 100 100 100 221 221 221 221 221 247 247 233 233
 233 233 233 233 136 136 136 136 2 2 2 2 82 82 82 82 100 100 100 100
 221 221 221 221 221 247 247 233 233 233 233 233 251 136 136 136 136 136 2 82
 82 82 82 82 82 100 100 100 100 100 221 221 221 221 247 247 233 233 233 251
 251 251 136 136 136 136 136 232 82 82 82 82 82 82 82 100 100 100 100 221
 221 47 47 47 247 251 251 251 251 251 251 251 251 136 136 232 232 82 82 82
 82 82 138 138 138 107 107 47 47 47 47 47 47 47 251 251 251 251 251 251
 251 251 251 77 232 232 82 82 82 138 138 138 138 138 107 107 47 47 47 47
 47 47 47 251 251 251 251 251 251 251 251 228 228 232 232 58 58 138 138 138
 138 138 138 215 80 205 47 47 47 47 47 30 30 251 251 251 251 251 5 26
 228 228 228 58 58 58 138 138 138 138 215 215 215 205 205 47 47 47 47 30
 30 30 30 5 5 5 5 26 26 26 26 58 58 58 58 176 176 176 215 215
 215 215 205 205 205 47 30 30 30 30 30 30 5 5 5 5 26 26 26 26
 11 58 58 58 176 176 176 215 215 215 215 215 205 205 47 30 30 30 30 30
 5 5 5 5 5 26 26 26 11 11 58 58 58 176 176 176 176 215 215 215
 215 205 205 47 30 30 30 30 30 5 5 5 5 5 26 11 11 11 11 11
 58 58 176 176 176 176 76 76 76 76 76 83 83 30 30 30 30 30 5 5
 5 5 5 11 11 11 11 11 11 58 58 176 176 176 176 76 76 76 83 83
 83 83 83 83 83 122 122 209 209 209 209 209 209 11 11 11 11 11 11 58
 176 28 237 237 76 76 76 83 83 83 83 83 83 122 122 122 209 209 209 209
 209 209 11 11 11 11 11 11 28 28 237 237 237 237 76 76 83 83 83 83
 83 83 122 122 122 209 209 209 209 209 209 209 11 11 11 92 92 92 28 237
 237 237 237 237 83 83 83 83 83 83 122 122 122 122 59 209 209 209 209 209
 209 11 11 92 92 92 92 92 237 237 237 237 237 7 83 83 83 83 83 122
 122 122 122 59 209 209 209 209 209 209 11 11 92 92 92 92 92 237 237 237
 237 7 7 7 83 83 83 249 122 122 122 122 59 209 209 209 209 195 195 234
 234 92 92 92 92 92 237 237 237 237 7 7 7 7 244 52 52 81 81 81
 81 81 195 195 195 195 195 195 234 211 211 211 92 92 92 121 121 121 121 7
 7 7 244 52 52 52 81 81 81 81 81 195 195 195 195 195 195 211 211 211
 211 211 95 95 121 121 121 123 7 7 7 52 52 52 52 52 81 81 81 81
 195 195 195 195 195 195 211 211 211 211 211 95 95 95 121 164 123 123 250 250
 52 52 52 52 52 81 81 81 81 195 195 195 195 112 112 235 235 211 211 211
 95 95 95 164 164 164 250 250 250 52 52 52 52 52 241 81 185 112 112 112
 112 112 112 112 235 235 211 211 95 95 95 95 164 164 164 250 250 250 250 52
 52 241 241 241 241 185 185 185 112 112 112 112 112 235 235 235 2 2 95 95
 95 164 164 164 4 4 250 250 250 241 241 241 241 241 185 185 185 185 112 112
 99 99 99 235 2 2 2 2 2 2 2 164 4 4 4 4 4 4 241 241
 241 241 241 185 185 185 185 185 112 99 99 99 2 2 2 2 2 2 2 2
 2 4 4 4 4 4 4 221 241 241 241 241 185 185 185 185 185 112 99 99
 99 2 2 2 2 2 2 2 2 163 163 4 4 4 4 221 221 221 221 221
 247 185 185 185 185 185 185 136 136 136 2 2 2 2 2 2 2 2 100 100
 100 100 4 221 221 221 221 221 221 247 233 233 233 233 233 233 136 136 136 136
 2 2 2 2 2 82 82 100 100 100 100 100 221 221 221 221 221 221 247 233
 233 233 233 233 233 136 136 136 136 136 2 2 2 82 82 82 82 100 100 100
 100 221 221 221 221 221 221 221 233 233 233 233 233 233 136 136 136 136 136 2
 2 82 82 82 82 82 100 100 100 100 221 221 221 221 221 221 221 233 233 233
 233 251 136 136 136 136 136 77 77 82 82 82 82 82 82 82 107 107 107 107
 47 47 47 47 47 144 233 233 251 251 251 251 251 136 136 77 77 77 82 82
 82 82 82 138 138 107 107 107 107 47 47 47 47 47 144 144 251 251 251 251
 251 251 136 77 77 77 77 82 82 82 138 138 138 138 107 107 107 107 47 47
 47 47 47 144 144 251 251 251 251 251 251 26 26 26 77 160 58 58 58 138
 138 138 215 215 107 107 205 47 47 47 47 47 144 144 62 251 251 251 251 26
 26 26 26 26 58 58 58 58 176 138 215 215 215 215 205 205 205 47 47 47
 30 30 30 62 62 62 5 26 26 26 26 26 58 58 58 58 58 176 176 215
 215 215 215 205 205 205 47 47 30 30 30 30 62 62 5 5 26 26 26 26
 26 58 58 58 58 58 176 176 215 215 215 215 205 205 205 205 30 30 30 30
 30 62 62 5 5 26 26 26 26 26 58 58 58 58 176 176 176 176 215 215
 215 205 205 205 205 30 30 30 30 30 62 62 5 5 26 26 26 11 11 11
 11 58 58 176 176 176 176 76 76 76 76 83 83 83 30 30 30 30 30 62
 62 5 5 26 209 11 11 11 11 11 58 58 176 176 176 176 76 76 76 83
 83 83 83 83 83 83 122 59 59 209 209 209 209 209 111 11 11 11 11 58
 28 28 28 28 237 76 76 83 83 83 83 83 83 83 83 122 59 59 209 209
 209 209 209 111 111 11 11 11 28 28 28 28 28 237 237 237 83 83 83 83
 83 83 83 83 122 59 59 59 209 209 209 209 111 111 111 111 92 92 92 28
 28 237 237 237 237 83 83 83 83 83 83 83 122 122 59 59 59 209 209 209
 209 111 111 111 92 92 92 92 92 28 237 237 237 237 7 83 83 83 83 83
 249 122 122 59 59 59 209 209 209 209 111 111 111 92 92 92 92 92 237 237
 237 237 7 7 7 7 83 249 249 249 249 122 59 59 59 209 209 209 195 195
 111 92 92 92 92 92 92 92 121 121 121 7 7 7 7 244 244 249 249 249
 81 81 59 195 195 195 195 195 195 211 211 211 211 92 92 92 121 121 121 121
 7 7 7 244 244 244 52 249 81 81 81 195 195 195 195 195 195 195 211 211
 211 211 211 211 95 121 121 121 121 7 7 7 244 244 52 52 52 81 81 81
 195 195 195 195 195 195 195 235 211 211 211 211 211 95 95 121 164 164 164 250
 250 52 52 52 52 52 81 81 81 181 112 112 195 195 112 99 235 235 211 211
 211 95 95 95 164 164 164 164 250 250 250 52 52 52 241 241 241 185 112 112
 112 112 112 112 99 235 235 235 211 211 95 95 95 164 164 164 250 250 250 250
 250 52 241 241 241 241 185 185 185 112 112 112 99 99 235 235 235 211 2 95
 95 164 164 164 164 250 250 250 250 250 241 241 241 241 241 185 185 185 185 112
 112 99 99 99 235 235 2 2 2 2 2 164 164 164 4 4 4 4 4 241
 241 241 241 241 185 185 185 185 185 99 99 99 99 235 2 2 2 2 2 2
 2 163 163 163 4 4 4 4 241 241 241 241 241 185 185 185 185 185 99 99
 99 99 156 156 2 2 2 2 2 2 163 163 163 163 4 4 221 221 221 221
 241 152 185 185 185 185 185 99 99 99 99 156 2 2 2 2 2 2 2 163
 163 163 163 4 221 221 221 221 221 221 152 233 233 233 233 233 99 136 136 136
 136 156 2 2 2 2 2 82 100 163 163 163 100 221 221 221 221 221 221 221
 233 233 233 233 233 233 136 136 136 136 77 2 2 2 82 82 82 82 100 100
 100 100 221 221 221 221 221 221 221 233 233 233 233 233 233 136 136 136 136 77
 77 2 82 82 82 82 82 100 100 107 107 221 221 221 221 221 221 221 233 233
 233 233 233 136 136 136 136 77 77 77 77 82 82 13 82 82 107 107 107 107
 107 47 47 47 47 221 144 233 233 251 251 251 251 251 136 77 77 77 77 77
 13 13 13 13 107 107 107 107 107 107 47 47 47 47 144 144 144 251 251 251
 251 251 251 77 77 77 77 77 77 13 13 13 138 138 107 107 107 107 107 47
 47 47 47 144 144 144 144 251 251 251 251 26 26 77 77 77 160 58 58 58
 176 138 215 215 107 107 107 107 47 47 47 47 144 144 144 62 62 62 251 251
 26 26 26 26 58 58 58 58 58 176 176 215 215 215 107 107 205 205 47 47
 47 144 144 144 62 62 62 62 26 26 26 26 26 58 58 58 58 58 176 176
 215 215 215 215 205 205 205 205 47 30 30 30 30 62 62 62 26 26 26 26
 26 26 58 58 58 58 58 176 176 176 215 215 215 205 205 205 205 30 30 30
 30 62 62 62 62 26 26 26 26 26 26 58 58 58 58 58 176 176 176 215
 215 215 205 205 205 205 30 30 30 30 62 62 62 62 26 26 26 26 26 11
 11 58 58 58 176 176 176 176 176 76 76 83 83 83 83 83 30 30 30 62
 62 62 62 26 26 111 111 11 11 11 58 58 58 176 176 176 176 218 218 83
 83 83 83 83 83 83 83 16 59 59 59 209 209 209 111 111 111 111 11 11
 58 28 28 28 28 28 218 218 218 83 83 83 83 83 83 16 16 59 59 59
 59 209 209 111 111 111 111 111 92 28 28 28 28 28 28 218 218 218 83 83
 83 83 83 83 16 16 59 59 59 59 209 209 111 111 111 111 111 92 92 28
 28 28 28 28 218 218 218 83 83 83 83 83 83 16 16 59 59 59 59 209
 209 111 111 111 111 111 92 92 92 28 28 28 237 237 218 7 83 83 83 83
 249 249 16 16 59 59 59 59 209 209 111 111 111 111 92 92 92 92 92 28
 237 237 121 7 7 7 7 83 249 249 249 249 16 59 59 59 209 209 209 195
 111 111 92 92 92 92 92 92 121 121 121 121 7 7 7 244 244 244 249 249
 249 16 59 59 195 195 195 195 195 195 211 211 211 211 92 92 92 121 121 121
 121 7 7 7 244 244 244 249 249 249 81 181 181 195 195 195 195 195 195 211
 211 211 211 211 211 92 121 121 121 121 121 7 7 244 244 244 244 52 81 81
 181 181 181 181 195 195 99 235 235 211 211 211 211 211 95 121 121 121 164 250
 250 250 244 244 244 244 241 241 241 181 181 181 181 195 195 99 99 235 235 211
 211 211 211 95 164 164 164 164 250 250 250 250 131 131 241 241 241 241 181 181
 181 112 112 99 99 99 235 235 235 211 211 211 95 164 164 164 164 250 250 250
 250 131 131 241 241 241 241 185 185 185 112 112 99 99 99 235 235 235 211 211
 95 95 164 164 164 164 164 250 250 250 250 131 241 241 241 241 185 185 185 185
 99 99 99 99 99 235 156 156 156 156 2 164 164 164 164 163 4 4 250 15
 241 241 241 241 241 185 185 185 185 99 99 99 99 99 156 156 156 156 156 2
 2 164 163 163 163 163 4 4 15 241 241 241 241 152 152 185 185 185 99 99
 99 99 99 156 156 156 156 156 2 2 167 163 163 163 163 163 4 221 221 221
 152 152 152 152 185 185 185 99 99 99 99 156 156 156 156 156 156 2 167 167
 163 163 163 163 163 163 221 221 221 221 152 152 152 233 233 233 233 99 136 136
 156 156 156 156 156 156 2 167 167 163 163 163 163 163 221 221 221 221 221 221
 152 152 233 233 233 233 233 136 136 77 77 77 77 156 156 13 13 13 163 163
 163 79 79 221 221 221 221 221 221 152 233 233 233 233 233 233 136 136 77 77
 77 77 77 13 13 13 13 13 107 107 107 107 12 221 221 221 221 221 221 233
 233 233 233 233 136 136 77 77 77 77 77 77 13 13 13 13 13 107 107 107
 107 12 12 12 47 47 144 144 144 145 145 145 251 251 146 77 77 77 77 77
 77 13 13 13 13 13 107 107 107 107 107 12 12 47 144 144 144 144 145 145
 145 251 146 146 146 77 77 77 77 160 13 13 13 13 13 107 107 107 107 107
 12 47 47 144 144 144 144 145 145 145 145 146 146 146 146 77 77 160 160 160
 13 13 13 13 107 107 107 107 107 205 47 47 144 144 144 144 145 145 145 145
 146 26 146 146 146 160 160 58 58 58 176 176 215 215 107 107 107 205 205 47
 47 144 144 144 144 62 62 62 62 26 26 26 26 26 58 58 58 58 58 176
 176 215 215 215 107 205 205 205 205 47 144 144 144 62 62 62 62 62 26 26
 26 26 26 58 58 58 58 58 176 176 176 215 215 215 205 205 205 205 30 30
 30 30 62 62 62 62 206 26 26 26 26 26 58 58 58 58 58 176 176 176
 215 215 215 205 205 205 205 30 30 30 30 62 62 62 206 206 26 26 26 26
 26 58 58 58 58 176 176 176 176 176 215 78 78 83 83 83 83 154 154 154
 62 62 206 206 206 206 111 111 111 111 111 58 58 58 176 176 176 176 218 78
 78 78 78 83 83 83 83 16 16 16 8 8 8 8 8 111 111 111 111 111
 111 28 28 28 28 28 28 218 218 78 78 78 83 83 83 83 16 16 16 59
 59 59 111 111 111 111 111 111 111 111 28 28 28 28 28 28 218 218 218 78
 83 83 83 83 16 16 16 16 59 59 59 111 111 111 111 111 111 111 92 92
 28 28 28 28 28 218 218 218 83 83 83 83 83 16 16 16 16 59 59 59
 59 111 111 111 111 111 111 92 92 92 28 28 28 28 218 218 218 83 83 83
 83 249 16 16 16 16 59 59 59 209 111 111 111 111 111 92 92 92 92 92
 28 28 121 121 7 7 7 83 83 249 249 249 16 16 16 59 59 59 209 111
 111 111 111 111 92 92 92 92 92 66 121 121 121 7 7 7 244 244 249 249
 249 249 16 16 59 59 195 195 195 195 195 211 211 211 211 92 92 92 121 121
 121 121 7 7 175 244 244 244 249 249 249 249 181 181 181 181 181 195 195 211
 211 211 211 211 211 211 66 121 121 121 121 121 7 175 244 244 244 244 249 249
 181 181 181 181 181 181 195 99 99 235 211 211 211 211 211 66 121 121 121 121
 121 250 250 244 244 244 244 241 241 181 181 181 181 181 181 181 99 99 235 235
 211 211 211 211 95 164 164 164 164 250 250 250 250 131 131 131 241 241 181 181
 181 181 181 99 99 99 99 235 235 235 211 211 211 95 164 164 164 164 250 250
 250 250 131 131 131 241 241 241 181 181 181 99 99 99 99 99 99 235 235 211
 211 156 164 164 164 164 164 164 250 250 250 131 131 241 241 241 241 185 185 185
 99 99 99 99 99 99 156 156 156 156 156 156 164 164 164 164 163 250 250 15
 15 15 241 241 241 152 152 185 185 99 99 99 99 99 99 156 156 156 156 156
 156 167 167 163 163 163 163 163 15 15 15 152 152 152 152 152 152 185 99 99
 99 99 99 156 156 156 156 156 156 156 167 167 167 163 163 163 163 15 15 152
 152 152 152 152 152 152 185 99 99 99 99 99 156 156 156 156 156 156 156 167
 167 167 163 163 163 163 68 221 221 152 152 152 152 152 152 233 233 99 99 99
 136 156 156 156 156 156 156 156 167 167 167 167 163 79 79 79 221 221 221 152
 152 152 152 152 233 233 233 6 136 77 77 77 77 77 156 156 13 13 167 167
 167 79 79 79 79 221 221 221 221 221 152 152 233 233 233 6 6 136 77 77
 77 77 77 77 13 13 13 13 13 13 79 79 79 12 12 12 221 221 180 203
 203 233 233 6 6 6 77 77 77 77 77 77 77 13 13 13 13 13 107 107
 107 12 12 12 12 12 12 144 144 203 145 145 145 6 146 146 77 77 77 77
 77 160 13 13 13 13 13 107 107 107 107 12 12 12 12 144 144 144 145 145
 145 145 145 146 146 146 77 77 77 160 160 13 13 13 13 13 107 107 107 107
 12 12 12 144 144 144 144 145 145 145 145 145 146 146 146 146 77 160 160 160
 160 13 13 13 13 107 107 107 245 245 245 12 144 144 144 144 145 145 145 145
 145 146 146 146 146 146 160 160 160 160 58 176 176 215 107 107 245 245 245 205
 205 144 144 144 144 145 145 145 145 145 146 146 146 146 146 160 160 58 58 58
 176 176 176 107 107 245 245 205 205 205 144 144 144 144 62 62 62 62 62 26
 26 26 26 146 58 58 58 58 58 176 176 176 215 215 245 245 205 205 205 154
 154 154 154 62 62 62 62 206 206 206 26 26 26 58 58 58 58 58 176 176
 176 176 215 78 78 205 205 205 154 154 154 154 62 62 62 206 206 206 206 206
 26 26 58 58 58 58 58 176 176 176 176 78 78 78 78 83 83 154 154 154
 154 154 62 206 206 206 206 111 111 111 111 111 226 58 58 176 176 176 53 78
 78 78 78 78 78 83 83 154 154 154 154 8 8 8 8 206 111 111 111 111
 111 226 226 28 28 28 28 218 218 218 78 78 78 83 83 83 16 16 16 16
 59 8 8 8 111 111 111 111 111 111 226 226 226 28 28 28 218 218 218 218
 78 78 83 83 83 16 16 16 16 59 59 59 111 111 111 111 111 111 111 226
 226 226 28 28 28 218 218 218 218 216 216 83 83 16 16 16 16 16 59 59
 59 111 111 111 111 111 111 111 226 226 226 28 28 28 218 218 218 218 216 216
 83 83 16 16 16 16 16 59 59 59 111 111 111 111 111 111 111 92 92 92
 92 66 66 66 218 218 218 216 216 83 249 249 16 16 16 16 59 59 59 111
 111 111 111 111 111 92 92 92 92 66 66 66 121 121 7 175 175 175 244 249
 249 249 249 16 16 181 181 181 35 111 111 111 229 229 211 211 92 66 66 66
 66 121 121 121 175 175 175 244 244 249 249 249 249 181 181 181 181 181 242 242
 229 229 229 211 211 211 66 66 66 66 121 121 121 175 175 175 244 244 244 202
 249 181 181 181 181 181 181 242 99 229 229 229 211 211 211 211 66 66 66 196
 196 196 175 175 131 131 131 131 131 181 181 181 181 181 181 181 242 99 99 229
 229 211 211 211 211 66 164 196 196 196 196 250 250 131 131 131 131 131 241 174
 181 181 181 181 99 99 99 99 99 235 235 128 128 128 128 164 164 196 196 196
 250 131 131 131 131 131 241 241 174 174 181 181 99 99 99 99 99 99 235 128
 128 128 128 128 164 164 196 196 196 250 131 131 131 131 131 241 241 174 174 174
 174 99 99 99 99 99 99 156 156 156 156 128 128 227 164 196 196 163 68 15
 15 15 15 152 152 152 152 174 174 219 99 99 99 99 99 99 156 156 156 156
 156 156 167 167 167 163 163 68 68 15 15 15 152 152 152 152 152 219 219 219
 99 99 99 99 223 156 156 156 156 156 156 167 167 167 167 163 68 68 68 15
 152 152 152 152 152 152 219 219 219 99 99 99 223 223 156 156 156 156 156 156
 167 167 167 167 163 68 68 68 68 152 152 152 152 152 152 219 219 219 219 99
 223 223 223 156 156 156 156 156 156 167 167 167 167 79 79 79 79 68 152 152
 152 152 152 152 219 219 219 6 6 6 193 193 193 77 156 156 156 13 167 167
 167 167 79 79 79 79 79 221 221 152 152 152 152 219 6 6 6 6 6 77
 77 77 77 77 77 13 13 13 13 13 13 79 79 79 12 12 12 12 180 180
 203 203 203 6 6 6 6 6 77 77 77 77 77 77 13 13 13 13 13 13
 79 79 12 12 12 12 12 180 180 203 203 203 203 6 6 6 146 146 77 77
 77 77 160 13 13 13 13 13 13 107 107 245 12 12 12 12 144 203 203 203
 203 145 145 145 146 146 146 146 77 77 160 160 13 13 13 13 13 107 107 245
 245 245 12 12 12 144 144 203 145 145 145 145 145 146 146 114 146 146 160 160
 160 160 13 13 13 13 107 245 245 245 245 245 12 144 144 144 144 145 145 145
 145 145 146 146 146 146 146 160 160 160 147 147 147 147 13 107 245 245 245 245
 245 205 144 144 144 144 145 145 145 145 145 146 146 146 146 146 160 160 147 147
 147 147 147 176 107 245 245 245 245 205 205 154 154 154 154 145 145 145 145 206
 146 206 146 146 146 147 147 147 147 147 147 147 176 215 245 245 245 205 205 154
 154 154 154 154 154 62 62 206 206 206 206 146 146 146 58 58 58 58 58 176
 176 176 176 78 78 78 78 205 154 154 154 154 154 154 62 206 206 206 206 206
 206 206 146 58 58 58 58 58 176 176 53 53 78 78 78 78 78 154 154 154
 154 154 154 154 8 206 206 206 111 111 111 111 111 226 226 58 53 53 53 53
 53 187 187 187 187 187 83 154 154 154 154 154 8 8 8 8 206 111 111 111
 111 111 226 226 226 119 53 53 53 53 218 187 187 187 187 27 27 16 16 16
 16 8 8 8 8 111 111 111 111 111 111 226 226 226 119 119 53 53 218 218
 218 187 216 27 27 27 16 16 16 16 59 8 8 111 111 111 111 111 111 226
 226 226 226 119 119 119 218 218 218 216 216 216 27 27 27 16 16 16 16 59
 59 59 111 111 111 111 111 111 226 226 226 226 119 119 119 218 218 218 216 216
 216 216 27 27 16 16 16 16 59 35 59 111 111 111 111 111 111 226 226 226
 119 119 66 66 66 218 218 216 216 216 216 27 27 16 16 16 16 35 35 35
 35 111 111 111 111 111 226 92 92 66 66 66 66 66 66 7 175 175 175 244
 249 202 202 249 16 35 35 35 35 35 111 242 229 229 229 229 229 66 66 66
 66 66 66 66 121 175 175 175 244 202 202 202 202 202 35 35 35 35 242 242
 242 229 229 229 229 229 66 66 66 66 66 66 66 66 175 175 175 244 202 202
 202 202 181 181 181 181 242 242 242 242 229 229 229 229 229 66 66 66 66 66
 196 196 196 175 175 131 131 131 131 202 202 181 181 181 181 181 242 242 99 229
 229 229 229 128 128 128 66 196 196 196 196 196 250 131 131 131 131 131 131 174
 174 174 181 181 181 242 242 99 99 229 229 128 128 128 128 128 196 196 196 196
 196 250 131 131 131 131 131 174 174 174 174 174 181 242 99 99 99 99 99 235
 128 128 128 128 128 196 196 196 196 196 250 131 131 131 131 131 174 174 174 174
 174 174 99 99 99 99 99 99 156 156 128 128 128 227 227 9 196 196 68 68
 68 15 15 15 152 152 152 174 174 174 219 219 99 99 99 223 223 223 156 156
 156 156 227 227 227 167 167 68 68 68 68 15 15 152 152 152 152 174 219 219
 219 219 99 99 223 223 223 156 156 156 156 227 227 167 167 167 68 68 68 68
 68 152 152 152 152 152 152 219 219 219 219 99 223 223 223 223 156 156 156 156
 227 167 167 167 167 68 68 68 68 68 152 152 152 152 152 152 219 219 219 219
 219 223 223 223 223 156 156 156 156 227 167 167 167 167 79 79 79 68 68 68
 152 152 152 152 152 219 219 219 6 6 6 193 193 193 193 193 156 156 227 167
 167 167 79 79 79 79 79 68 180 180 180 180 180 180 219 6 6 6 6 6
 193 193 193 193 193 193 13 13 13 13 13 79 79 79 79 12 12 12 180 180
 180 180 203 203 6 6 6 6 6 193 193 193 193 77 77 13 13 13 13 13
 13 79 79 12 12 12 12 180 180 180 203 203 203 203 6 6 6 146 146 77
 77 77 77 160 13 13 13 13 13 13 245 245 245 12 12 12 12 180 180 203
 203 203 203 145 6 6 146 146 146 77 160 160 160 13 13 13 13 13 107 245
 245 245 245 12 12 12 180 203 203 203 203 145 145 145 146 146 146 146 146 160
 160 160 147 147 13 13 13 107 245 245 245 245 245 12 12 144 203 203 145 145
 145 145 145 146 146 146 146 146 160 160 147 147 147 147 147 147 245 245 245 245
 245 245 12 154 144 144 144 145 145 145 145 145 146 146 146 146 146 147 147 147
 147 147 147 147 147 245 245 245 245 245 245 154 154 154 154 154 65 145 145 145
 206 146 206 146 146 146 147 147 147 147 147 147 147 147 50 50 50 50 50 154
 154 154 154 154 154 154 154 206 206 206 206 206 146 146 146 147 147 147 147 147
 147 147 53 53 50 50 50 50 50 154 154 154 154 154 154 154 206 206 206 206
 206 206 206 146 147 147 147 147 147 176 53 53 53 53 50 187 187 187 154 154
 154 154 154 154 154 8 8 206 206 111 111 111 111 226 226 226 53 53 53 53
 53 53 53 187 187 187 187 187 154 154 154 154 154 8 8 8 8 8 111 111
 111 111 226 226 226 226 53 53 53 53 53 187 187 187 187 187 27 27 27 16
 16 16 8 8 8 8 111 111 111 111 111 226 226 226 226 119 119 53 53 53
 187 187 187 187 27 27 27 27 16 16 16 8 8 8 111 111 111 111 111 111
 226 226 226 226 119 119 119 53 53 218 216 216 216 27 27 27 27 16 16 16
 35 35 111 111 111 111 111 111 111 226 226 226 119 119 119 119 218 218 218 216
 216 216 27 27 27 27 16 16 16 35 35 35 111 111 111 111 111 111 226 226
 226 119 119 119 66 66 224 224 216 216 216 27 27 27 27 16 16 35 35 35
 35 35 111 111 111 111 111 226 226 66 66 66 66 66 66 224 224 224 224 175
 202 202 202 202 202 202 35 35 35 35 35 35 242 229 229 229 229 229 66 66
 66 66 66 66 224 224 224 224 175 202 202 202 202 202 202 35 35 35 35 35
 242 242 229 229 229 229 229 66 66 66 66 66 66 224 224 224 224 175 202 202
 202 202 202 202 35 35 35 242 242 242 242 229 229 229 229 229 66 66 66 66
 66 196 196 196 224 131 131 131 202 202 202 202 202 181 181 181 242 242 242 242
 229 229 229 229 128 128 128 66 196 196 196 196 196 196 131 131 131 131 105 105
 174 174 174 181 181 242 242 242 99 229 229 229 128 128 128 128 128 196 196 196
 196 196 196 131 131 131 131 105 174 174 174 174 174 174 242 242 242 99 99 229
 229 128 128 128 128 128 9 196 196 196 196 68 68 131 131 131 105 174 174 174
 174 174 174 242 99 99 99 99 223 223 128 128 128 128 227 227 9 9 9 68
 68 68 68 15 15 152 174 174 174 174 174 219 219 99 99 99 223 223 223 223
 156 156 227 227 227 227 9 9 68 68 68 68 68 15 152 152 152 174 174 219
 219 219 219 99 223 223 223 223 223 156 156 227 227 227 227 167 167 68 68 68
 68 68 68 152 152 152 152 219 219 219 219 219 219 223 223 223 223 223 156 156
 227 227 227 167 167 167 68 68 68 68 68 68 152 152 152 152 219 219 219 219