# vtk DataFile Version 2.0
Data set from ImportExport Version 6.5.171.b0b162591
ASCII

DATASET RECTILINEAR_GRID
DIMENSIONS 30 30 30
X_COORDINATES 30 float
-1.250000 1.250000 3.750000 6.250000 8.750000 11.250000 13.750000 16.250000 18.750000 21.250000 23.750000 26.250000 28.750000 31.250000 33.750000 36.250000 38.750000 41.250000 43.750000 46.250000 48.750000 
51.250000 53.750000 56.250000 58.750000 61.250000 63.750000 66.250000 68.750000 71.250000 
Y_COORDINATES 30 float
-1.250000 1.250000 3.750000 6.250000 8.750000 11.250000 13.750000 16.250000 18.750000 21.250000 23.750000 26.250000 28.750000 31.250000 33.750000 36.250000 38.750000 41.250000 43.750000 46.250000 48.750000 
51.250000 53.750000 56.250000 58.750000 61.250000 63.750000 66.250000 68.750000 71.250000 
Z_COORDINATES 30 float
-1.250000 1.250000 3.750000 6.250000 8.750000 11.250000 13.750000 16.250000 18.750000 21.250000 23.750000 26.250000 28.750000 31.250000 33.750000 36.250000 38.750000 41.250000 43.750000 46.250000 48.750000 
51.250000 53.750000 56.250000 58.750000 61.250000 63.750000 66.250000 68.750000 71.250000 
CELL_DATA 24389
SCALARS FeatureIds int 1
LOOKUP_TABLE default
 171 171 171 171 171 171 171 191 191 191 191 103 103 103 103 11 11 169 169 169
 236 236 236 236 207 207 82 82 82 171 171 171 171 171 171 171 191 191 191 191
 103 103 103 103 103 103 169 169 236 236 236 236 236 236 82 82 82 82 157 171
 171 171 171 221 222 191 191 191 191 191 103 103 103 103 103 236 236 236 236 236
 236 59 59 59 82 82 82 157 157 171 171 221 221 221 191 191 191 191 191 103
 103 103 23 23 23 236 236 236 236 236 59 59 59 157 157 157 157 157 221 221
 221 221 221 191 191 191 191 191 191 103 103 23 23 111 111 111 236 236 59 59
 59 59 157 157 157 157 157 157 221 221 221 221 191 191 191 191 190 190 14 14
 14 72 111 111 111 111 59 59 59 59 59 157 157 157 157 157 114 221 221 221
 221 191 190 190 190 190 190 14 14 14 72 72 111 111 175 59 59 59 59 180
 157 157 157 157 114 114 114 105 221 105 190 190 190 190 190 190 14 14 95 95
 95 141 141 141 141 59 59 180 180 180 180 157 114 114 114 114 114 105 105 190
 190 190 190 190 190 14 95 95 95 95 141 141 141 141 141 180 180 180 180 180
 114 114 114 114 114 107 107 177 192 192 192 192 192 95 95 95 95 95 95 141
 141 141 141 43 43 180 180 180 180 114 114 114 114 107 107 107 107 192 192 192
 192 192 95 95 95 95 95 95 95 141 141 141 141 43 43 180 180 228 114 114
 107 107 107 107 178 178 192 192 192 192 179 179 95 95 95 95 95 95 141 141
 78 78 43 43 43 228 228 228 228 107 107 107 178 178 178 192 192 192 179 179
 179 95 95 95 95 124 124 47 47 78 155 155 228 228 228 228 228 228 107 107
 178 178 178 178 178 192 179 179 179 179 179 95 95 47 124 47 47 47 155 155
 155 229 229 228 228 228 228 107 107 178 178 178 178 178 179 179 179 179 179 179
 95 47 47 47 47 47 47 62 62 229 229 229 228 228 228 228 202 107 178 178
 178 178 178 179 179 179 179 179 179 95 47 47 47 47 47 62 62 62 62 229
 229 229 115 115 202 202 202 178 178 178 178 178 179 179 179 179 179 179 95 156
 156 156 156 156 62 62 62 62 62 229 229 115 115 202 202 202 202 202 178 76
 76 76 76 179 179 179 179 156 156 156 156 156 156 62 62 62 62 62 62 229
 115 115 202 202 202 202 202 76 76 76 76 76 76 179 179 195 156 156 156 156
 156 131 62 62 62 62 62 62 62 202 202 202 202 202 202 202 76 76 76 76
 76 76 76 195 195 195 156 156 131 131 131 131 131 62 62 62 62 62 202 202
 202 202 202 202 202 76 76 76 76 76 76 195 195 195 195 195 131 131 131 131
 131 131 5 5 5 5 88 202 202 202 202 202 202 202 202 76 76 76 76 212
 212 195 195 195 195 131 131 131 131 131 131 5 5 5 88 88 88 202 194 194
 194 202 202 30 30 30 30 30 212 212 212 195 132 132 131 131 131 131 131 131
 5 5 88 88 88 88 88 194 194 194 194 30 30 30 30 30 30 212 212 212
 132 132 132 214 81 81 81 81 131 5 88 88 88 88 88 88 194 194 194 194
 30 30 30 30 30 30 30 212 132 132 214 214 214 214 81 81 81 81 88 88
 88 88 88 88 88 194 194 194 194 30 30 30 30 30 30 30 212 214 214 214
 214 214 214 169 169 169 169 88 88 88 88 88 88 88 171 171 171 171 171 30
 30 30 30 30 30 212 214 214 214 214 214 169 169 169 169 169 169 88 88 88
 88 88 88 171 171 171 171 171 30 30 30 30 30 30 30 185 185 185 185 185
 169 169 169 169 169 169 169 207 207 82 82 82 171 171 171 171 171 171 30 30
 30 30 30 103 103 103 185 185 185 169 169 169 169 169 236 236 207 207 82 82
 82 171 171 171 171 171 171 171 191 191 191 191 103 103 103 103 185 185 169 169
 169 169 236 236 236 82 82 82 82 82 82 171 171 171 171 171 171 191 191 191
 191 103 103 103 103 103 103 169 169 236 236 236 236 236 82 82 82 82 82 82
 171 171 171 171 221 221 191 191 191 191 191 103 103 103 103 103 103 236 236 236
 236 236 59 59 59 82 82 82 157 171 171 221 221 221 221 191 191 191 191 191
 103 103 103 103 103 175 175 175 236 236 59 59 59 59 157 157 157 157 157 221
 221 221 221 221 221 191 191 191 191 103 103 103 103 175 175 175 175 175 175 59
 59 59 59 157 157 157 157 157 157 221 221 221 221 221 191 191 191 191 14 14
 14 14 72 175 175 175 175 175 59 59 59 59 157 157 157 157 157 114 105 105
 105 221 221 191 191 191 14 14 14 14 14 72 72 175 175 175 175 59 59 59
 180 180 157 157 157 114 114 114 105 105 105 105 190 190 190 14 14 14 14 14
 72 72 72 175 175 6 6 59 180 180 180 180 157 114 114 114 114 105 105 105
 105 190 190 190 14 14 14 14 95 95 72 72 72 141 6 6 43 43 180 180
 180 114 114 114 114 114 105 105 177 177 192 192 192 14 14 95 95 95 95 95
 95 78 78 78 43 43 43 43 43 43 114 114 114 114 114 107 177 177 177 192
 192 192 192 95 95 95 95 95 95 78 78 78 78 6 43 43 43 43 43 114
 114 114 114 107 178 178 177 177 192 192 192 179 179 95 95 95 95 95 78 78
 78 78 78 43 43 43 228 228 228 228 107 107 178 178 178 178 177 192 192 179
 179 179 95 95 95 95 47 47 47 78 78 155 155 228 228 228 228 228 228 228
 107 178 178 178 178 178 192 179 179 179 179 179 95 95 47 47 47 47 47 155
 155 155 229 229 228 228 228 228 228 178 178 178 178 178 178 179 179 179 179 179
 179 95 47 47 47 47 47 47 155 155 155 229 229 228 228 228 228 228 178 178
 178 178 178 178 179 179 179 179 179 179 95 47 47 47 47 47 47 62 62 155
 229 229 229 228 228 135 135 226 226 178 178 178 76 76 179 179 179 179 179 95
 156 156 156 156 47 62 62 62 62 62 229 229 115 115 202 202 202 226 226 76
 76 76 76 76 179 179 179 179 156 156 156 156 156 131 62 62 62 62 62 62
 229 229 115 202 202 202 202 226 76 76 76 76 76 76 76 195 195 106 106 156
 156 131 131 131 62 62 62 62 62 229 181 202 202 202 202 202 202 76 76 76
 76 76 76 76 195 195 195 106 131 131 131 131 131 131 62 62 62 62 181 181
 181 202 202 202 202 202 76 76 76 76 76 76 195 195 195 195 195 131 131 131
 131 131 131 5 5 5 5 181 181 181 181 202 202 202 202 76 76 76 76 76
 212 212 195 195 195 195 131 131 131 131 131 131 5 5 5 88 181 181 181 181
 194 194 202 202 30 76 76 76 212 212 212 212 195 195 214 131 131 131 131 131
 131 5 5 5 88 88 181 181 194 194 194 194 30 30 30 30 30 212 212 212
 212 212 214 214 214 131 131 131 131 131 5 5 88 88 88 88 181 194 194 194
 194 30 30 30 30 30 212 212 212 212 214 214 214 214 214 131 131 131 131 5
 88 88 88 88 88 88 194 194 171 171 171 30 30 30 30 30 212 212 212 214
 214 214 214 214 169 169 169 169 169 88 88 88 88 88 4 171 171 171 171 171
 30 30 30 30 30 212 212 214 214 214 214 214 169 169 169 169 169 169 88 88
 88 88 4 4 171 171 171 171 171 171 30 30 30 30 30 212 185 185 185 185
 185 169 169 169 169 169 169 169 88 207 82 82 82 171 171 171 171 171 171 171
 30 30 30 103 103 103 103 185 185 185 169 169 169 169 169 236 236 207 207 82
 82 82 171 171 171 171 171 171 171 75 191 191 191 103 103 103 103 103 103 169
 169 169 169 236 236 59 82 82 82 82 82 171 171 171 171 171 171 171 191 191
 191 191 191 103 103 103 103 103 169 169 169 236 236 236 59 59 82 82 82 82
 82 171 171 171 171 221 221 191 191 191 191 191 103 103 103 103 103 175 175 175
 236 236 59 59 59 59 82 82 82 173 173 171 171 221 221 221 191 191 191 191
 191 103 103 103 103 103 175 175 175 175 175 59 59 59 59 157 157 157 173 173
 173 221 221 221 221 221 191 191 191 191 191 103 14 14 175 175 175 175 175 175
 59 59 59 59 157 157 173 173 173 173 221 221 221 221 221 191 191 191 14 14
 14 14 14 72 175 175 175 175 175 59 59 59 59 157 157 173 173 173 173 105
 105 105 105 105 191 191 14 14 14 14 14 14 72 72 175 175 175 175 59 59
 59 180 157 157 157 173 114 114 105 105 105 105 105 105 14 14 14 14 14 14
 14 72 72 72 175 175 6 6 6 43 180 180 157 157 114 114 114 105 105 105
 105 105 105 192 14 14 14 14 14 14 72 72 72 72 6 6 6 43 43 43
 43 180 114 114 114 114 114 105 105 177 177 177 192 192 14 14 14 95 95 95
 95 78 78 78 6 6 43 43 43 43 43 114 114 114 114 114 105 177 177 177
 177 192 192 192 95 95 95 95 95 95 78 78 78 78 6 43 43 43 43 43
 114 114 114 114 178 178 177 177 177 177 192 192 179 179 95 95 95 95 95 78
 78 78 78 6 43 43 43 43 228 228 228 114 178 178 178 178 177 177 177 192
 179 179 179 95 95 95 95 47 47 78 78 78 155 155 155 228 228 228 228 228
 228 178 178 178 178 178 177 177 179 179 179 179 179 95 95 47 124 47 47 78
 155 155 155 155 229 228 228 228 228 228 178 178 178 178 178 178 177 179 179 179
 179 179 95 95 124 124 47 47 78 155 155 155 155 229 228 228 228 135 135 226
 178 178 178 178 178 177 179 179 179 179 179 95 95 124 124 124 47 47 155 155
 155 155 229 229 228 228 135 135 226 226 226 226 178 76 76 179 179 179 179 179
 95 95 124 124 124 47 62 62 155 155 155 229 229 228 135 135 135 226 226 226
 226 76 76 76 76 179 179 179 195 106 106 106 55 55 128 128 62 62 62 62
 62 229 229 135 135 135 226 226 226 226 76 76 76 76 76 195 195 195 106 106
 106 55 55 128 128 62 62 62 62 62 62 181 181 135 135 226 226 226 76 76
 76 76 76 76 195 195 195 106 106 106 55 131 131 128 128 62 62 62 62 181
 181 181 181 202 202 226 226 76 76 76 76 76 76 195 195 195 195 106 106 131
 131 131 131 131 5 5 5 181 181 181 181 181 181 202 226 76 76 76 76 76
 76 212 212 195 195 195 106 106 131 131 131 131 131 5 5 5 181 181 181 181
 181 181 194 226 76 76 76 76 76 212 212 212 212 195 195 195 106 131 131 131
 131 131 5 5 5 88 181 181 181 181 181 194 194 30 30 30 30 212 212 212
 212 212 212 195 214 214 131 131 131 131 131 5 5 5 88 88 181 181 4 4
 194 171 171 30 30 30 30 212 212 212 212 212 214 214 214 214 131 131 131 131
 5 5 88 88 4 4 4 4 171 171 171 171 30 30 30 30 212 212 212 212
 214 214 214 214 214 169 169 169 169 169 88 88 88 4 4 4 171 171 171 171
 171 171 30 30 30 212 212 212 212 214 214 214 214 169 169 169 169 169 169 238
 238 4 4 4 4 171 171 171 171 171 171 171 140 30 30 212 212 185 185 185
 185 185 169 169 169 169 169 169 238 238 4 4 4 4 171 171 171 171 171 171
 171 140 140 30 167 103 103 103 185 185 185 169 169 169 169 169 169 238 238 238
 82 82 82 171 171 171 171 171 171 75 75 75 191 167 167 127 127 127 127 127
 169 169 169 169 236 238 238 238 82 82 82 82 171 171 171 171 171 75 75 75
 75 191 167 167 127 127 127 127 127 127 169 169 236 236 236 59 59 82 82 82
 82 173 171 171 171 171 75 75 75 191 191 191 167 127 127 127 127 127 175 175
 175 175 175 59 59 59 59 1 1 173 173 173 61 61 221 221 221 191 191 191
 191 191 127 127 127 127 127 175 175 175 175 175 59 59 59 59 173 173 173 173
 173 61 61 61 221 221 221 191 191 31 31 31 31 127 14 175 175 175 175 175
 175 59 59 59 59 173 173 173 173 173 61 61 61 54 221 221 191 191 31 31
 14 14 14 14 72 175 175 175 175 175 59 59 59 59 173 173 173 173 173 61
 105 105 105 105 105 15 15 31 14 14 14 14 14 72 72 175 175 175 6 6
 6 59 157 173 173 173 173 173 61 105 105 105 105 105 15 15 14 14 14 14
 14 14 72 72 72 175 6 6 6 6 43 43 43 173 173 114 114 114 105 105
 105 105 105 15 15 15 14 14 14 14 14 72 72 72 6 6 6 6 6 43
 43 43 43 114 114 114 114 105 105 105 177 177 177 177 192 14 14 14 14 95
 95 72 78 78 6 6 6 6 43 43 43 43 114 114 114 114 114 177 177 177
 177 177 177 192 192 187 187 95 95 95 78 78 78 78 6 6 6 43 43 43
 43 114 114 114 40 40 177 177 177 177 177 177 192 179 187 187 95 95 95 78
 78 78 78 78 6 6 43 43 43 43 43 228 40 40 40 40 177 177 177 177
 177 179 179 179 187 95 95 95 78 78 78 78 78 155 155 155 43 228 228 228
 228 40 40 40 40 178 177 177 177 179 179 179 179 179 95 95 95 124 78 78
 78 155 155 155 155 155 109 109 109 135 40 40 40 40 178 178 177 177 179 179
 179 179 179 95 95 124 124 124 47 78 155 155 155 155 155 109 109 109 135 135
 226 226 226 226 178 177 177 179 179 179 179 179 95 95 124 124 124 47 155 155
 155 155 155 155 229 109 109 135 135 226 226 226 226 226 76 76 179 179 179 179
 179 95 106 124 124 55 128 155 155 155 155 155 155 229 135 135 135 135 226 226
 226 226 226 76 76 76 9 9 195 106 106 106 55 55 55 128 128 155 155 155
 155 155 155 135 135 135 135 226 226 226 226 76 76 76 76 9 9 195 106 106
 106 106 55 55 128 128 128 62 62 62 62 62 135 135 135 135 226 226 226 226
 76 76 76 76 9 195 195 195 106 106 106 55 55 128 128 128 128 62 62 62
 181 181 181 181 135 226 226 226 76 76 76 76 76 9 195 195 195 106 106 106
 55 55 128 128 128 128 5 5 181 181 181 181 181 181 226 226 226 76 76 76
 76 76 212 212 195 195 195 106 106 55 131 131 131 128 5 5 5 181 181 181
 181 181 181 226 226 226 76 76 76 76 212 212 212 212 195 195 195 106 131 131
 131 131 131 5 5 5 181 181 181 181 4 4 4 226 117 117 117 117 212 212
 212 212 212 212 195 195 214 131 131 131 131 131 5 5 5 181 181 181 181 4
 4 4 171 117 117 117 117 212 212 212 212 212 212 214 214 214 214 169 131 131
 131 238 5 4 4 4 4 4 4 4 171 171 171 117 117 140 212 212 212 212
 212 212 214 214 214 214 169 169 169 169 238 238 238 4 4 4 4 4 171 171
 171 171 171 140 140 140 212 212 212 212 214 214 214 214 169 169 169 169 169 238
 238 238 4 4 4 4 171 171 171 171 171 171 140 140 140 117 117 167 137 137
 137 137 137 169 169 169 169 169 238 238 238 238 4 4 4 171 171 171 171 171
 171 140 140 140 117 167 167 127 127 137 137 137 169 169 169 169 169 238 238 238
 238 82 82 82 171 171 171 171 171 75 75 75 75 75 167 167 127 127 127 127
 137 137 139 139 139 134 238 238 238 238 1 1 1 171 171 171 171 171 75 75
 75 75 75 167 167 127 127 127 127 137 137 139 139 139 134 134 238 238 1 1
 1 1 173 171 171 171 171 75 75 75 75 75 167 167 127 127 127 127 127 175
 175 175 175 134 134 59 59 1 1 1 1 173 61 61 61 54 54 75 75 75
 75 31 31 127 127 127 127 127 175 175 175 175 175 134 59 59 1 1 1 1
 173 61 61 61 61 54 54 54 191 31 31 31 31 31 127 127 175 175 175 175
 175 175 175 59 59 173 173 173 173 173 61 61 61 61 54 54 54 15 31 31
 31 31 14 14 14 72 175 175 175 175 175 6 6 59 173 173 173 173 173 61
 61 61 105 105 105 105 15 15 31 31 14 14 14 14 72 72 175 175 175 6
 6 6 6 173 173 173 173 173 61 61 105 105 105 105 105 15 15 15 14 14
 14 14 14 72 72 72 175 6 6 6 6 6 43 43 173 173 114 114 61 105
 105 105 105 105 15 15 15 14 14 14 14 14 72 72 72 6 6 6 6 6
 43 43 43 43 173 114 114 25 25 25 25 25 177 177 15 15 14 14 14 14
 14 72 72 78 78 6 6 6 6 43 43 43 43 43 113 114 40 25 25 25
 177 177 177 177 192 187 187 187 187 95 95 78 78 78 78 6 6 6 43 43
 43 43 43 113 40 40 40 40 177 177 177 177 177 192 187 187 187 187 187 95
 78 78 78 78 78 6 6 43 43 43 109 109 109 40 40 40 40 177 177 177
 177 177 179 187 187 187 187 95 95 78 78 78 78 78 155 155 155 109 109 109
 109 109 40 40 40 40 40 177 177 177 177 179 179 187 187 187 95 95 78 78
 78 78 78 155 155 155 109 109 109 109 109 40 40 40 40 40 178 177 177 179
 179 179 179 179 95 95 124 124 182 182 182 155 155 155 155 155 109 109 109 135
 135 226 226 226 226 226 177 177 179 179 179 35 35 95 95 124 124 182 182 155
 155 155 155 155 155 109 109 109 135 135 135 226 226 226 226 226 9 9 9 35
 35 32 106 106 55 55 55 128 155 155 155 155 155 155 109 135 135 135 135 226
 226 226 226 226 9 9 9 9 9 32 106 106 106 55 55 55 128 128 155 155
 155 155 155 155 135 135 135 135 226 226 226 226 226 9 9 9 9 9 9 106
 106 106 55 55 55 128 128 128 155 155 155 62 135 135 135 135 135 226 226 226
 226 226 9 9 9 9 9 195 106 106 106 55 55 55 128 128 128 128 62 62
 181 181 181 135 135 135 226 226 226 226 76 76 9 9 9 9 195 195 106 106
 55 55 55 128 128 128 128 5 181 181 181 181 181 181 135 226 226 226 226 76
 76 9 9 112 112 195 195 106 106 106 55 55 128 128 128 128 5 5 181 181
 181 181 181 181 226 226 226 117 117 117 117 212 212 112 112 195 195 106 106 55
 131 131 131 131 128 5 181 181 181 181 181 4 4 4 117 117 117 117 117 117
 212 212 212 212 212 195 106 41 41 73 131 131 131 128 5 4 4 4 4 4
 4 4 86 117 117 117 117 117 117 212 212 212 212 212 214 214 214 220 220 73
 131 238 238 238 4 4 4 4 4 4 4 86 171 117 117 117 117 117 117 212
 212 212 212 137 137 137 220 169 169 169 238 238 238 238 4 4 4 4 4 86
 171 171 117 117 140 140 140 117 117 212 212 137 137 137 137 137 169 169 169 238
 238 238 238 4 4 4 4 86 86 171 171 171 171 140 140 140 117 117 167 137
 137 137 137 137 137 169 169 169 238 238 238 238 238 4 4 4 171 171 171 171
 171 171 140 140 140 117 167 167 127 127 137 137 137 137 169 169 169 238 238 238
 238 238 4 4 86 86 86 86 171 171 75 75 75 75 75 167 167 127 127 127
 127 137 139 139 139 139 134 238 238 238 238 238 1 1 86 171 171 171 171 75
 75 75 75 75 167 167 127 127 127 127 137 139 139 139 139 134 134 134 238 1
 1 1 1 1 1 61 61 75 75 75 75 75 75 167 167 127 127 127 127 127
 139 139 139 134 134 134 134 1 1 1 1 1 1 61 61 61 54 54 75 75
 75 75 31 31 127 127 127 127 127 175 175 175 134 134 134 134 151 1 1 1
 1 173 61 61 61 61 54 54 54 75 31 31 31 31 31 127 127 127 175 175
 175 175 175 134 151 151 151 1 1 1 173 61 61 61 61 54 54 54 15 15
 31 31 31 31 14 14 72 175 175 175 175 175 6 6 151 151 173 173 173 173
 61 61 61 54 54 54 15 15 15 31 31 31 14 14 14 72 72 175 175 6
 6 6 6 151 151 151 173 173 173 61 61 61 105 105 105 15 15 15 15 31
 14 14 14 14 72 72 72 6 6 6 6 6 6 43 43 173 173 113 159 159
 159 25 25 25 15 15 15 15 15 14 14 14 14 72 72 72 6 6 6 6
 6 6 43 43 43 113 113 113 159 25 25 25 25 177 15 15 15 168 187 187
 187 14 72 72 78 6 6 6 6 6 6 43 43 43 113 113 113 25 25 25
 25 25 177 177 177 168 168 187 187 187 187 95 78 78 78 6 6 6 6 43
 43 43 43 113 113 40 40 40 40 177 177 177 177 177 168 168 187 187 187 187
 95 78 78 78 78 6 6 6 43 43 109 109 109 109 40 40 40 40 70 70
 177 177 177 168 168 187 187 187 187 182 182 182 182 182 158 158 155 109 109 109
 109 109 109 40 40 40 40 70 70 177 177 177 168 168 187 187 187 187 182 182
 182 182 182 158 158 155 155 109 109 109 109 109 40 40 40 40 70 70 70 177
 35 35 35 35 35 187 187 182 182 182 182 182 158 155 155 155 109 109 109 109
 135 135 226 226 226 226 226 226 35 35 35 35 35 35 35 35 182 182 182 182
 182 155 155 155 155 109 109 109 109 135 135 135 226 226 226 226 226 9 35 35
 35 35 32 32 55 55 55 55 101 101 101 155 155 155 155 109 109 135 135 135
 135 211 226 226 226 9 9 9 9 9 32 32 32 55 55 55 55 55 101 101
 101 155 155 155 109 135 135 135 135 226 226 226 226 226 9 9 9 9 9 32
 32 106 55 55 55 55 128 128 101 101 155 155 155 135 135 135 135 135 226 226
 226 226 226 9 9 9 9 9 195 106 106 106 55 55 55 128 128 128 128 128
 60 60 181 135 135 135 135 226 226 226 226 9 9 9 9 9 9 195 106 106
 106 55 55 55 128 128 128 128 128 60 60 181 181 181 181 135 226 226 226 117
 117 9 9 9 112 112 112 106 106 106 55 55 55 128 128 128 128 60 60 60
 181 181 181 181 181 226 226 117 117 117 117 117 112 112 112 112 112 106 41 41
 55 73 73 73 128 128 60 60 60 181 181 181 4 4 4 117 117 117 117 117
 117 112 112 112 112 112 41 41 41 41 73 73 73 73 73 60 60 4 4 4
 4 4 4 86 117 117 117 117 117 117 117 112 112 112 112 41 41 220 220 220
 73 73 238 238 238 4 4 4 4 4 4 86 86 86 117 117 117 117 117 117
 112 112 112 112 137 137 220 220 220 220 238 238 238 238 238 4 4 4 4 86
 86 86 86 117 117 117 140 117 117 117 112 112 137 137 137 137 220 220 220 238
 238 238 238 238 238 4 4 4 86 86 86 86 117 117 140 140 140 117 117 167
 137 137 137 137 137 137 220 139 238 238 238 238 238 238 4 4 86 86 86 86
 86 171 75 140 140 140 117 167 167 127 127 137 137 137 137 139 139 139 238 238
 238 238 238 238 4 86 86 86 86 86 75 75 75 75 75 75 167 167 127 127
 127 127 137 139 139 139 139 134 134 238 238 238 1 86 86 86 86 86 86 75
 75 75 75 75 75 167 167 127 127 127 127 137 139 139 139 139 134 134 134 134
 1 1 1 1 1 1 61 61 29 75 75 75 75 75 167 167 127 127 127 127
 127 139 139 139 134 134 134 134 134 1 1 1 1 1 61 61 61 29 29 29
 75 75 75 31 31 127 127 127 127 127 139 139 139 134 134 134 134 151 151 1
 1 1 1 61 61 61 29 29 29 29 29 31 31 31 31 31 127 127 91 91
 91 91 134 134 134 151 151 151 151 1 1 173 61 61 61 29 29 29 29 29
 15 31 31 31 31 14 91 91 91 91 91 91 175 6 151 151 151 151 151 1
 61 61 61 61 29 29 29 29 15 15 31 31 31 31 91 91 91 91 91 91
 6 6 6 151 151 151 151 151 173 113 159 159 159 159 29 29 29 15 15 15
 31 31 14 91 91 91 91 91 91 6 6 6 6 151 151 151 151 113 113 113
 159 159 159 25 25 15 15 15 15 15 14 14 91 91 91 91 91 91 6 6
 6 6 6 43 43 113 113 113 113 159 159 25 25 25 25 15 15 168 168 168
 187 187 91 91 91 91 6 6 6 6 6 6 43 43 113 113 113 113 113 25
 25 25 25 25 177 168 168 168 168 187 187 187 91 91 182 182 6 6 6 6
 6 43 113 113 113 113 113 40 40 70 70 70 70 177 168 168 168 168 187 187
 187 182 182 182 182 182 158 158 6 6 43 109 109 113 113 40 40 40 70 70
 70 70 177 168 168 168 168 187 187 187 182 182 182 182 182 158 158 158 146 146
 109 109 109 109 40 40 40 70 70 70 70 177 168 168 168 168 187 187 187 182
 182 182 182 182 158 158 158 146 146 109 109 109 109 40 40 40 70 70 70 70
 70 35 35 35 35 35 187 182 182 182 182 182 182 158 158 158 146 146 109 109
 109 135 135 135 226 226 70 70 70 35 35 35 35 35 35 35 182 182 182 182
 182 182 101 101 155 155 109 109 109 109 135 135 135 226 226 226 226 226 35 35
 35 35 35 32 32 32 55 182 182 101 101 101 101 101 155 155 109 109 135 135
 135 135 226 226 226 226 9 9 9 35 35 32 32 32 32 55 55 55 101 101
 101 101 101 155 155 135 135 135 135 135 226 226 226 226 226 9 9 9 9 9
 32 32 32 55 55 55 55 101 101 101 101 101 101 60 135 135 135 135 135 226
 226 226 226 226 9 9 9 9 9 32 32 106 55 55 55 55 128 128 101 101
 101 60 60 34 34 135 34 135 226 226 226 226 9 9 9 9 9 9 9 106
 106 55 55 55 55 128 128 128 128 60 60 60 34 34 34 34 135 226 226 226
 117 117 9 9 9 112 112 112 106 106 41 55 55 55 73 128 128 128 60 60
 60 34 34 34 34 34 226 117 117 117 117 117 117 112 112 112 112 112 41 41
 41 41 73 73 73 73 73 60 60 60 34 34 34 4 4 117 117 117 117 117
 117 117 117 112 112 112 112 41 41 41 41 73 73 73 73 73 60 60 60 34
 34 4 4 86 86 117 117 117 117 117 117 117 112 112 112 112 41 41 41 220
 220 73 73 73 238 238 60 4 4 4 4 86 86 86 86 117 117 117 117 117
 117 117 112 112 112 137 220 220 220 220 220 73 238 238 238 238 4 4 4 4
 86 86 86 86 117 117 117 117 117 117 117 112 112 137 137 137 220 220 220 220
 220 238 238 238 238 238 4 4 86 86 86 86 86 117 117 117 140 117 117 117
 117 137 137 137 137 137 220 220 220 238 238 238 238 238 238 234 234 86 86 86
 86 86 117 117 140 140 140 117 167 167 127 127 137 137 137 137 139 139 139 238
 238 238 238 238 234 234 86 86 86 86 86 86 75 75 75 75 75 167 167 127
 127 127 127 137 139 139 139 139 134 134 134 134 234 234 234 86 86 86 86 86
 29 75 75 75 75 75 167 167 127 127 127 127 139 139 139 139 139 134 134 134
 134 134 1 1 1 1 86 86 29 29 29 75 75 75 75 167 167 127 127 127
 127 139 139 139 139 134 134 134 134 134 134 1 1 1 1 61 61 29 29 29
 29 29 75 75 31 31 127 127 127 127 91 139 139 139 134 134 134 134 151 151
 151 1 1 1 61 61 29 29 29 29 29 29 31 31 31 31 8 8 91 91
 91 91 91 134 134 134 151 151 151 151 151 1 173 61 61 29 29 29 29 29
 29 15 31 31 31 8 8 91 91 91 91 91 91 134 134 151 151 151 151 151
 1 159 159 159 159 29 29 29 29 29 15 31 31 31 8 91 91 91 91 91
 91 91 27 27 151 151 151 151 151 151 113 159 159 159 159 29 29 29 15 15
 15 31 31 8 91 91 91 91 91 91 91 27 27 27 151 151 151 151 113 113
 113 159 159 159 29 29 29 15 15 15 168 168 91 91 91 91 91 91 91 91
 27 27 27 27 151 113 113 113 113 113 113 159 159 25 25 25 15 168 168 168
 168 168 91 91 91 91 91 91 6 6 6 98 98 98 113 113 113 113 113 113
 113 25 25 25 70 168 168 168 168 168 168 187 91 91 91 91 182 182 6 6
 98 98 98 113 113 113 113 113 113 70 70 70 70 70 70 168 168 168 168 168
 187 187 183 182 182 182 182 158 158 158 98 113 113 113 113 113 113 40 70 70
 70 70 70 70 168 168 168 168 168 187 183 183 182 182 182 182 158 158 158 146
 146 146 146 113 113 113 40 70 70 70 70 70 70 168 168 168 168 168 187 183
 183 182 182 182 182 158 158 158 146 146 146 146 146 109 40 40 70 70 70 70
 70 70 35 35 35 35 35 35 183 183 182 182 182 182 158 158 158 146 146 146
 146 109 135 135 135 226 70 70 70 70 35 35 35 35 35 35 35 183 183 182
 182 182 182 101 101 101 146 146 146 109 109 135 135 135 226 226 226 226 226 35
 35 35 35 35 32 32 32 21 21 142 142 101 101 101 101 101 146 146 109 135
 135 135 135 226 226 226 226 9 9 35 35 35 32 32 32 32 21 21 142 101
 101 101 101 101 101 165 165 165 135 135 135 226 226 226 226 226 9 9 9 9
 9 32 32 32 32 55 55 55 101 101 101 101 101 101 165 165 165 165 135 135
 226 226 226 226 226 9 9 9 9 9 32 32 32 55 55 55 55 101 101 101
 101 101 60 60 165 165 165 34 135 226 226 226 226 226 9 9 9 9 9 9
 106 106 55 55 55 55 128 128 128 101 60 60 60 34 34 34 34 34 226 226
 226 117 117 117 83 83 83 112 199 199 41 41 41 55 73 73 73 73 60 60
 60 60 34 34 34 34 34 34 117 117 117 117 117 83 83 83 112 199 199 41
 41 41 41 73 73 73 73 73 60 60 60 34 34 34 34 34 34 117 117 117
 117 117 117 83 83 112 112 199 41 41 41 41 73 73 73 73 73 60 60 60
 34 34 34 86 86 86 117 117 117 117 117 117 117 83 112 112 199 41 41 41
 220 220 73 73 73 73 60 60 4 4 4 4 86 86 86 86 117 117 117 117
 117 117 117 112 112 199 41 220 220 220 220 220 73 73 238 238 238 234 234 234
 86 86 86 86 86 117 117 117 117 117 117 117 112 112 137 137 220 220 220 220
 220 73 238 238 238 238 234 234 234 86 86 86 86 86 117 117 117 117 117 117
 117 117 127 137 137 137 220 220 220 220 139 238 238 238 238 234 234 234 86 86
 86 86 86 117 117 117 117 117 117 117 167 127 127 127 137 137 139 139 139 139
 134 134 238 238 234 234 234 86 86 86 86 86 86 75 75 75 75 75 167 167
 127 127 127 130 139 139 139 139 139 134 134 134 134 234 234 234 234 86 86 86
 86 29 29 203 203 203 75 167 167 127 127 127 130 139 139 139 139 139 134 134
 134 134 134 234 234 234 1 86 29 29 29 29 203 203 203 203 167 167 127 127
 127 118 139 139 139 139 134 134 134 134 134 134 1 1 1 1 29 29 29 29
 29 203 203 203 203 31 8 8 8 8 91 91 139 139 139 134 134 134 134 151
 151 151 151 1 1 29 29 29 29 29 29 203 203 203 31 8 8 8 8 91
 91 91 91 91 134 134 134 151 151 151 151 151 1 29 29 29 29 29 29 29
 29 29 29 31 8 8 8 8 91 91 91 91 91 91 134 134 151 151 151 151
 151 151 113 159 159 159 29 29 29 29 29 15 31 8 8 8 8 91 91 91
 91 91 91 27 27 27 151 151 151 151 151 113 159 159 159 159 29 29 29 15
 15 15 8 8 8 91 91 91 91 91 91 91 27 27 27 27 151 151 151 113
 113 113 159 159 159 29 29 29 15 15 168 168 168 91 91 91 91 91 91 91
 91 27 27 27 98 98 113 113 113 113 113 113 159 159 25 25 25 168 168 168
 168 168 168 91 91 91 91 91 91 91 27 98 98 98 98 113 113 113 113 113
 113 113 113 70 70 70 168 168 168 168 168 168 91 91 91 91 91 91 182 6
 98 98 98 98 113 113 113 113 113 113 113 70 70 70 70 70 168 168 168 168
 168 187 183 183 183 182 182 182 158 158 98 98 98 113 113 113 113 113 113 70
 70 70 70 70 70 168 168 168 168 168 187 183 183 183 182 182 182 158 158 158
 146 146 146 146 113 113 113 113 70 70 70 70 70 70 168 168 168 168 168 183
 183 183 183 182 182 182 158 158 158 146 146 146 146 146 113 113 40 70 70 70
 70 70 70 35 35 35 35 35 35 183 183 183 182 182 182 158 158 158 146 146
 146 146 146 135 135 135 70 70 70 70 70 35 35 35 35 35 35 35 183 183
 183 182 182 182 101 101 101 146 146 146 146 146 135 135 135 226 226 226 70 70
 35 35 35 35 35 32 32 21 21 21 142 142 142 101 101 101 101 146 146 165
 135 135 135 226 226 226 226 233 100 100 100 35 35 32 32 32 21 21 21 142
 142 142 101 101 101 101 165 165 165 165 165 135 226 226 226 226 233 100 100 100
 100 100 32 32 32 21 21 21 142 142 101 101 101 101 101 165 165 165 165 165
 135 226 226 226 226 100 100 100 100 100 100 32 32 32 55 55 55 142 142 101
 101 101 101 60 165 165 165 165 165 165 226 226 226 226 100 100 100 100 100 100
 199 32 199 55 55 55 230 230 230 101 101 60 60 60 165 165 165 120 120 120
 226 117 117 83 83 83 83 83 83 199 199 199 41 41 55 230 230 230 230 60
 60 60 60 34 34 34 120 120 120 117 117 117 117 83 83 83 83 83 199 199
 199 41 41 41 73 73 73 73 60 60 60 60 34 34 34 120 120 120 117 117
 117 117 117 83 83 83 83 199 199 199 41 41 41 73 73 73 73 73 60 60
 60 34 34 120 120 86 86 117 117 117 117 117 117 83 83 83 199 199 199 41
 41 220 220 73 73 73 73 60 60 60 34 4 120 86 86 86 86 117 117 117
 117 117 117 83 83 199 199 199 220 220 220 220 220 73 73 238 238 234 234 234
 234 234 86 86 86 86 117 117 117 117 117 117 117 83 199 199 199 220 220 220
 220 220 220 238 238 238 238 234 234 234 234 86 86 86 86 117 117 117 117 117
 117 117 117 127 137 137 220 220 220 220 220 139 134 238 238 238 234 234 234 234
 86 86 86 86 117 117 117 117 117 117 117 117 127 127 127 137 137 139 139 139
 139 134 134 238 238 234 234 234 234 234 86 86 86 86 203 203 203 203 203 167
 130 130 130 130 130 130 139 139 139 139 134 134 134 134 234 234 234 234 234 86
 86 29 29 203 203 203 203 203 167 130 130 130 130 130 130 139 139 139 134 134
 134 134 134 234 234 234 234 234 86 29 29 29 29 203 203 203 203 203 130 130
 130 130 118 118 139 139 139 134 134 134 134 134 134 234 234 234 1 29 29 29
 29 29 203 203 203 203 203 8 8 8 118 118 118 42 42 42 42 134 134 134
 134 151 151 151 1 1 29 29 29 29 29 203 203 203 203 8 8 8 8 8
 91 91 91 91 42 42 134 134 134 151 151 151 151 1 113 29 29 29 204 204
 204 203 203 203 8 8 8 8 8 91 91 91 91 91 91 91 134 151 151 151
 151 151 151 113 159 159 159 204 204 204 204 203 203 8 8 8 8 8 91 91
 91 91 91 91 91 27 27 151 151 151 151 113 113 113 159 159 159 204 204 29
 15 164 164 8 8 8 91 91 91 91 91 91 91 27 27 27 27 151 151 113
 113 113 113 113 159 159 204 204 29 164 164 164 164 164 91 91 91 91 91 91
 91 91 27 98 98 98 98 113 113 113 113 113 113 159 159 154 154 154 168 168
 164 164 164 164 91 91 91 91 91 91 91 98 98 98 98 98 113 113 113 113
 113 113 113 113 154 154 154 168 168 168 168 168 168 91 91 91 91 91 91 91
 98 98 98 98 98 113 113 113 113 113 113 113 70 154 154 154 168 168 168 168
 168 168 91 183 183 183 183 182 182 158 98 98 98 98 113 113 113 113 113 113
 70 70 70 70 70 70 168 168 168 168 168 183 183 183 183 183 182 182 158 158
 153 153 146 146 113 113 113 113 113 70 70 70 70 70 70 168 168 168 168 168
 183 183 183 183 183 182 182 158 158 153 153 146 146 146 113 113 113 70 70 70
 70 70 70 70 35 35 35 35 35 183 183 183 183 183 182 182 158 158 153 153