# vtk DataFile Version 2.0
Data set from ImportExport Version 6.5.171.b0b162591
ASCII

DATASET RECTILINEAR_GRID
DIMENSIONS 30 30 30
X_COORDINATES 30 float
-1.250000 1.250000 3.750000 6.250000 8.750000 11.250000 13.750000 16.250000 18.750000 21.250000 23.750000 26.250000 28.750000 31.250000 33.750000 36.250000 38.750000 41.250000 43.750000 46.250000 48.750000 
51.250000 53.750000 56.250000 58.750000 61.250000 63.750000 66.250000 68.750000 71.250000 
Y_COORDINATES 30 float
-1.250000 1.250000 3.750000 6.250000 8.750000 11.250000 13.750000 16.250000 18.750000 21.250000 23.750000 26.250000 28.750000 31.250000 33.750000 36.250000 38.750000 41.250000 43.750000 46.250000 48.750000 
51.250000 53.750000 56.250000 58.750000 61.250000 63.750000 66.250000 68.750000 71.250000 
Z_COORDINATES 30 float
-1.250000 1.250000 3.750000 6.250000 8.750000 11.250000 13.750000 16.250000 18.750000 21.250000 23.750000 26.250000 28.750000 31.250000 33.750000 36.250000 38.750000 41.250000 43.750000 46.250000 48.750000 
51.250000 53.750000 56.250000 58.750000 61.250000 63.750000 66.250000 68.750000 71.250000 
CELL_DATA 24389
SCALARS FeatureIds int 1
LOOKUP_TABLE default
 14 14 14 14 14 211 211 229 211 211 44 135 135 135 135 63 63 135 135 135
 161 161 161 161 150 150 150 150 150 14 14 14 14 14 229 229 229 229 229 44
 135 135 135 63 63 63 135 135 135 161 161 161 161 150 150 150 150 150 14 14
 14 14 14 229 229 229 229 229 229 168 168 168 63 63 63 135 135 135 247 247
 247 247 247 150 150 150 150 14 14 14 14 229 229 229 229 229 229 229 168 168
 168 135 135 135 135 135 23 247 247 247 247 247 247 150 150 150 20 20 20 20
 216 216 229 229 229 76 76 76 168 168 135 135 135 135 23 23 247 247 247 247
 247 247 247 150 20 20 20 20 20 20 216 216 216 216 76 76 76 168 79 79
 79 79 79 23 247 247 247 247 247 247 247 247 20 20 20 20 20 20 216 216
 216 216 216 76 76 76 79 79 79 79 79 79 79 23 247 247 247 247 247 247
 247 20 20 28 28 28 28 213 213 213 213 213 213 76 76 79 79 79 79 79
 79 79 23 247 247 247 247 247 247 247 28 28 28 28 28 28 213 213 213 213
 213 213 132 132 2 2 79 79 79 2 2 2 247 247 247 247 247 247 247 28
 28 28 28 28 28 213 213 213 213 213 132 132 132 2 2 2 2 2 2 2
 2 61 61 61 61 12 247 28 28 28 28 28 28 28 213 213 213 213 132 132
 132 132 108 108 2 2 2 2 2 2 61 61 61 61 12 12 28 28 28 243
 243 243 243 243 213 213 132 132 132 132 132 108 108 108 2 2 2 2 61 61
 61 61 61 12 12 12 243 243 243 243 243 212 212 212 212 132 132 132 132 132
 108 108 108 2 2 2 2 61 61 61 61 61 12 12 243 243 243 243 243 243
 212 212 212 212 132 132 132 132 132 108 108 195 195 195 195 195 61 61 61 61
 69 69 69 101 243 243 243 243 109 212 212 212 212 132 132 132 132 132 195 195
 195 195 195 195 195 195 123 123 69 69 69 69 101 101 109 109 109 109 109 212
 212 212 132 132 207 207 207 207 195 195 195 195 195 195 195 123 123 69 69 69
 69 69 69 109 109 109 109 109 109 212 118 207 207 207 207 207 207 195 195 195
 195 195 195 171 171 123 123 69 69 69 69 69 109 109 109 109 109 109 118 118
 118 207 207 207 207 207 207 240 195 195 195 171 171 171 171 171 69 69 69 214
 214 109 109 109 109 109 109 118 118 118 118 207 207 207 207 207 240 240 240 240
 186 186 171 171 171 69 69 214 214 214 214 245 109 109 54 54 118 118 118 118
 207 207 207 207 240 240 240 240 240 186 186 159 159 159 159 245 245 245 245 245
 214 54 54 54 54 54 118 118 118 207 207 207 207 240 240 240 240 240 159 159
 159 159 159 159 245 245 245 214 214 54 54 54 54 54 16 16 16 16 16 96
 96 34 240 240 240 240 240 159 159 159 159 159 159 159 78 214 214 214 54 54
 54 54 54 16 16 16 16 16 16 34 34 34 240 240 240 159 159 159 159 159
 159 159 78 78 131 131 131 164 164 164 164 54 16 16 16 16 16 16 34 34
 34 34 34 34 159 159 159 159 159 159 159 78 78 131 131 131 164 164 164 164
 164 16 16 16 16 16 16 34 34 34 206 206 206 206 159 159 159 159 159 159
 78 78 210 210 210 164 164 164 164 164 16 16 16 16 16 16 34 34 206 206
 206 206 206 206 159 159 159 159 159 78 210 210 210 210 164 164 164 164 164 16
 16 16 16 16 16 206 206 206 206 206 206 206 206 159 159 159 156 156 210 210
 210 210 210 184 184 184 184 184 196 196 196 196 196 196 206 206 206 206 206 206
 206 206 206 98 156 156 156 156 189 189 189 189 184 184 184 184 184 196 196 196
 196 196 196 206 206 206 206 206 206 206 206 206 98 98 156 156 156 189 189 189
 189 14 14 14 14 14 211 211 211 211 211 44 44 44 63 63 63 63 63 63
 63 161 161 161 161 161 150 150 150 150 14 14 14 14 14 211 211 211 211 211
 44 44 63 63 63 63 63 63 63 63 161 161 161 161 161 150 150 150 150 14
 14 14 14 14 229 229 229 229 229 229 44 44 63 63 63 63 63 63 23 247
 247 161 234 234 150 150 150 150 14 14 14 14 229 229 229 229 229 229 229 168
 168 168 63 63 63 23 23 23 59 247 247 247 247 247 150 150 150 20 20 20
 20 20 229 229 229 229 229 76 76 168 168 79 63 79 23 23 23 59 247 247
 247 247 247 247 150 20 20 20 20 20 20 216 216 229 229 229 76 76 79 79
 79 79 79 79 23 23 59 247 247 247 247 247 247 247 20 20 20 20 20 20
 216 216 216 216 76 76 76 79 79 79 79 79 79 23 23 59 59 247 247 247
 247 247 20 20 20 20 20 20 213 213 213 213 213 213 213 213 79 79 79 79
 79 79 23 23 59 59 247 247 247 247 247 20 20 28 28 28 28 213 213 213
 213 213 213 132 132 2 79 79 79 79 79 2 2 59 59 247 247 247 247 247
 28 28 28 28 28 28 213 213 213 213 213 132 132 132 108 108 79 79 79 2
 2 2 59 12 12 12 12 12 12 28 28 28 28 28 28 213 213 213 213 132
 132 132 132 108 108 108 2 2 2 2 2 61 12 12 12 12 12 12 28 28
 243 243 243 243 213 213 213 132 132 132 132 132 108 108 108 108 2 2 2 61
 61 12 12 12 12 12 12 243 243 243 243 243 212 212 212 132 132 132 132 132
 132 108 108 108 108 2 2 4 4 61 12 12 12 12 12 12 243 243 243 243
 243 212 212 212 132 132 132 132 132 132 45 108 195 195 195 195 195 4 4 12
 12 12 12 101 101 101 243 109 109 109 109 212 212 212 132 132 132 132 45 45
 45 195 195 195 195 195 195 69 69 69 69 69 101 101 101 109 109 109 109 109
 109 212 212 132 132 207 207 207 45 45 195 195 195 195 195 195 123 123 123 69
 69 69 101 35 109 109 109 109 109 109 109 55 55 207 207 207 207 207 45 195
 195 195 195 195 123 123 123 123 69 69 69 69 35 109 109 109 109 109 109 109
 55 55 207 207 207 207 207 207 195 195 195 195 195 171 123 123 123 69 69 69
 214 214 109 109 109 109 109 109 55 55 55 55 207 207 207 207 207 240 240 240
 240 186 186 171 171 171 69 69 214 214 214 214 245 109 109 109 109 55 55 55
 55 55 207 207 207 207 240 240 240 240 186 159 159 159 159 159 245 245 245 214
 245 214 54 54 54 54 55 55 55 96 96 96 207 207 240 240 240 240 240 159
 159 159 159 159 159 245 245 214 214 214 214 54 54 54 54 96 96 96 96 96
 96 96 34 34 240 240 240 240 159 159 159 159 159 159 78 78 214 214 214 131
 164 164 164 54 96 96 96 96 96 96 34 34 34 34 34 34 159 159 159 159
 159 159 78 78 78 131 131 131 164 164 164 164 164 16 16 96 96 96 96 34
 34 34 34 34 34 34 159 159 159 159 159 78 78 78 131 131 131 164 164 164
 164 164 228 228 228 228 228 34 34 34 34 34 34 34 34 129 159 159 159 159
 78 78 78 210 210 210 164 164 164 164 164 228 228 228 228 228 34 34 34 34
 206 206 206 206 206 129 159 159 159 78 78 210 210 210 210 164 164 164 164 164
 228 228 196 196 196 196 34 206 206 206 206 206 206 206 98 98 98 98 78 78
 210 210 210 210 184 184 184 184 184 196 196 196 196 196 196 196 206 206 206 206
 206 206 206 98 98 98 156 156 189 189 189 189 189 184 184 184 184 184 196 196
 196 196 196 196 206 206 206 206 206 206 206 206 98 98 98 161 161 189 189 189
 189 189 14 14 14 14 14 211 211 211 211 211 44 44 44 63 63 63 63 63
 63 161 161 161 161 161 161 161 150 150 150 14 14 14 14 14 211 211 211 211
 211 44 44 44 63 63 63 63 63 63 161 161 161 161 161 161 161 150 150 150
 14 14 14 14 14 224 224 224 224 224 44 44 44 63 63 63 63 63 23 23
 161 161 161 234 234 234 150 150 150 14 14 14 14 224 224 224 224 224 224 224
 44 44 63 63 63 63 23 23 23 59 59 121 234 234 121 150 150 150 20 20
 20 20 224 224 224 224 224 224 224 177 177 177 79 79 23 23 23 23 59 59
 59 247 247 247 247 150 20 20 20 20 20 20 224 224 224 224 224 224 177 177
 79 79 79 79 23 23 23 59 59 59 247 247 247 247 247 20 20 20 20 20
 204 224 216 224 224 224 224 177 79 79 79 79 79 79 23 23 59 59 59 247
 247 247 247 247 20 20 20 20 20 213 213 213 213 213 213 213 213 79 79 79
 79 79 79 23 23 59 59 59 247 247 247 247 247 20 28 28 28 28 213 213
 213 213 213 213 132 132 79 79 79 79 79 79 23 23 59 59 59 247 247 247
 247 173 28 28 28 28 28 213 213 213 213 213 132 132 132 108 108 79 79 79
 79 2 23 12 12 12 12 12 12 12 173 173 28 28 28 28 213 213 213 213
 132 132 132 132 108 108 108 108 2 2 2 12 12 12 12 12 12 12 12 173
 173 243 243 215 215 213 213 213 132 132 132 132 132 108 108 108 108 108 2 4
 4 12 12 12 12 12 12 12 173 173 39 243 215 215 215 231 132 132 132 132
 132 132 108 108 108 108 195 195 4 4 12 12 12 12 12 12 12 173 173 39
 39 215 215 215 231 132 132 132 132 132 132 45 45 45 195 195 195 4 4 4
 12 12 12 12 101 101 101 173 39 39 39 215 215 231 231 132 132 132 132 45
 45 45 45 195 195 195 195 4 4 123 69 69 101 101 101 101 35 109 109 109
 109 109 231 231 231 132 207 207 45 45 45 45 195 195 195 195 144 123 123 69
 69 101 101 101 35 35 109 109 109 109 109 55 55 55 207 207 207 207 45 45
 45 195 195 195 195 144 123 123 123 69 69 101 101 35 35 109 109 109 109 109
 55 55 55 55 207 207 207 207 45 45 195 195 195 195 144 123 123 69 69 69
 69 35 35 35 109 109 109 109 109 55 55 55 55 55 207 207 207 207 45 195
 195 195 186 186 72 72 72 72 69 214 35 35 245 245 109 109 109 55 55 55
 55 55 55 207 207 207 207 240 240 240 240 186 159 159 159 72 72 245 245 245
 245 245 214 109 109 109 55 55 55 55 96 96 96 96 207 207 240 240 240 240
 159 159 159 159 159 72 245 214 214 214 214 214 164 164 54 96 96 96 96 96
 96 96 96 34 34 34 34 34 240 159 159 136 136 136 159 78 78 214 214 214
 131 164 164 164 96 96 96 96 96 96 96 34 34 34 34 34 34 129 129 159
 136 136 136 78 78 78 131 131 131 164 164 164 164 164 96 96 96 96 96 96
 34 34 34 34 34 34 129 129 136 136 136 136 78 78 78 131 131 131 164 164
 164 164 164 228 228 228 228 228 96 34 34 34 34 34 34 129 129 136 136 136
 136 78 78 78 210 210 210 164 164 164 164 164 228 228 228 228 228 228 34 34
 34 206 206 206 206 129 129 98 136 136 78 78 210 210 210 210 164 164 164 164
 164 228 228 228 196 196 196 34 34 206 206 206 206 206 133 98 98 98 98 98
 210 210 210 210 210 184 184 184 184 184 196 196 196 196 196 196 44 206 206 206
 206 206 206 206 98 98 98 98 161 189 189 189 189 189 184 184 184 184 184 196
 196 196 196 196 196 44 44 206 206 206 206 206 133 98 98 98 161 161 161 189
 189 189 189 14 14 14 14 211 211 211 211 211 211 44 44 44 44 63 63 63
 63 133 98 98 98 161 161 161 161 150 150 150 14 14 14 14 211 211 211 211
 211 211 44 44 44 44 63 63 63 63 133 98 98 161 161 161 161 161 150 150
 150 14 14 14 14 224 224 224 224 224 224 44 44 44 44 63 63 63 63 23
 23 161 161 161 234 161 161 150 150 150 14 14 14 14 204 224 224 224 224 224
 44 44 44 44 177 177 63 23 23 23 59 59 121 121 121 121 121 150 150 20
 20 20 204 204 224 224 224 224 224 44 177 177 177 177 177 23 23 23 23 59
 59 59 234 121 121 121 150 20 20 20 20 204 204 204 224 224 224 224 224 177
 177 177 177 177 79 23 23 23 59 59 59 247 247 247 247 247 20 20 20 20
 204 204 204 204 224 224 224 224 177 177 177 177 79 79 23 23 23 59 59 59
 247 247 247 247 247 20 148 20 148 204 204 204 213 213 213 213 213 177 177 177
 79 79 79 79 23 23 59 59 59 247 247 247 247 173 148 148 148 148 213 213
 213 213 213 213 213 132 132 79 79 79 79 79 79 23 23 59 59 59 247 247
 12 173 173 173 173 148 28 213 213 213 213 213 213 132 132 132 132 108 79 79
 79 79 23 23 59 12 12 12 12 12 173 173 173 173 173 215 215 213 213 213
 213 132 132 132 132 108 108 108 108 2 2 4 4 12 12 12 12 12 12 173
 173 173 173 215 215 215 215 231 231 132 132 132 132 132 108 108 108 108 108 4
 4 4 4 12 12 12 12 12 173 173 173 39 215 215 215 215 231 231 231 132
 132 132 132 108 108 108 108 195 4 4 4 4 12 12 12 12 12 173 173 173
 39 39 215 215 215 231 231 231 231 132 132 45 45 45 45 45 195 4 4 4
 4 4 12 12 12 101 3 3 173 39 39 39 215 215 231 231 231 231 231 45
 45 45 45 45 45 195 4 4 4 4 4 72 3 101 101 101 3 39 39 39
 39 39 215 231 231 231 231 231 45 45 45 45 45 45 195 195 144 144 144 72
 72 72 101 101 101 35 35 39 39 39 39 39 55 55 231 231 207 207 45 45
 45 45 45 195 195 144 144 144 72 72 72 101 101 101 35 35 109 109 109 109
 109 55 55 55 55 207 207 207 45 45 45 45 195 195 144 144 144 72 72 72
 72 35 35 35 35 109 109 109 109 55 55 55 55 55 55 207 207 207 45 45
 45 195 195 144 144 72 72 72 72 72 35 35 35 35 245 109 109 109 55 55
 55 55 55 55 96 207 207 207 240 240 240 240 144 159 72 72 72 72 72 245
 245 245 245 214 109 109 92 55 55 55 55 96 96 96 96 96 34 34 34 34
 129 129 129 136 136 72 72 72 214 214 214 214 214 164 92 92 96 96 96 96
 96 96 96 96 34 34 34 34 34 129 129 129 136 136 136 136 72 78 214 214
 214 131 164 164 92 96 96 96 96 96 96 96 34 34 34 34 34 34 129 129
 129 136 136 136 136 78 78 131 131 131 164 164 164 164 164 96 96 96 96 96
 96 34 34 34 34 34 34 129 129 129 136 136 136 136 78 78 131 131 131 164
 164 164 164 164 228 228 228 228 228 96 34 34 34 34 34 34 129 129 129 136
 136 136 136 78 78 210 210 210 164 164 164 164 164 228 228 228 228 228 96 34
 34 34 34 206 206 129 129 129 98 136 136 136 210 210 210 210 210 164 164 164
 164 164 228 228 228 196 196 196 34 34 206 206 206 206 133 133 133 98 98 98
 98 210 210 210 210 210 184 184 184 184 184 196 196 196 196 196 196 44 44 206
 206 206 206 206 133 133 98 98 98 98 161 29 29 29 29 184 184 184 184 196
 196 196 196 196 196 44 44 44 44 206 206 206 133 133 133 98 98 98 161 161
 161 29 29 29 14 14 14 57 57 57 57 211 211 211 44 44 44 44 44 63
 63 133 133 133 98 98 98 161 161 161 29 29 29 14 14 14 57 57 57 57
 211 211 211 44 44 44 44 63 63 63 133 133 133 98 161 161 161 161 161 150
 150 150 14 14 14 57 57 57 57 224 224 224 44 44 44 44 44 63 63 23
 23 23 121 121 234 234 161 161 161 150 150 14 14 204 204 204 224 224 224 224
 224 44 44 44 177 177 177 177 23 23 23 59 59 234 234 121 121 121 150 150
 20 20 204 204 204 204 224 224 224 224 44 177 177 177 177 177 177 23 23 23
 59 59 59 234 121 121 121 121 148 20 148 20 204 204 204 204 224 224 224 177
 177 177 177 177 177 177 23 23 23 59 59 59 59 247 247 247 148 148 148 148
 148 204 204 204 204 204 224 224 177 177 177 177 177 177 79 23 23 23 59 59
 59 59 247 247 247 148 148 148 148 148 204 204 204 204 204 213 213 5 177 177
 177 177 177 79 23 23 23 59 59 59 59 247 247 173 148 148 148 148 148 148
 204 213 213 213 213 213 5 5 177 177 79 79 79 79 23 23 59 59 59 12
 12 12 173 173 173 173 148 148 148 213 213 213 213 213 132 18 18 18 116 116
 149 149 149 23 23 59 12 12 12 12 12 173 173 173 173 173 215 215 215 213
 213 213 132 132 18 18 116 116 116 149 149 149 4 4 12 12 12 12 12 12
 173 173 173 173 215 215 215 215 231 231 231 231 132 18 18 116 116 116 149 149
 4 4 4 4 12 12 12 12 12 173 173 173 173 215 215 215 215 231 231 231
 231 231 132 132 116 116 108 45 4 4 4 4 4 4 12 12 12 12 173 173
 173 39 39 215 215 215 231 231 231 231 231 132 45 45 45 45 45 4 4 4
 4 4 4 12 12 3 3 3 173 173 39 39 39 215 215 231 231 231 231 231
 45 45 45 45 45 45 45 4 4 4 4 4 72 3 3 3 3 3 39 39
 39 39 39 215 231 231 231 231 231 45 45 45 45 45 45 45 144 144 144 144
 72 72 72 3 3 3 3 39 39 39 39 39 215 231 231 231 231 207 45 45
 45 45 45 45 45 144 144 144 144 72 72 72 3 3 3 35 35 39 39 39
 39 39 55 55 55 55 55 207 45 45 45 45 45 45 144 144 144 145 72 72
 72 72 3 35 35 35 39 39 39 109 55 55 55 55 55 55 207 207 45 45
 45 45 45 144 144 144 145 72 72 72 72 72 35 35 35 245 109 92 92 55
 55 55 55 55 96 96 96 45 45 45 45 45 144 144 144 145 72 72 72 72
 72 35 35 245 92 92 92 92 92 55 55 55 96 96 96 96 96 34 34 34
 34 129 129 129 136 136 72 72 72 72 214 13 214 92 92 92 92 92 96 96
 96 96 96 96 96 34 34 34 34 34 129 129 129 136 136 136 136 72 13 13
 13 13 92 92 92 92 92 96 96 96 96 96 96 34 34 34 34 34 34 129
 129 129 136 136 136 136 136 78 131 13 131 164 164 164 92 92 96 96 96 96
 96 96 34 34 34 34 34 34 129 129 129 136 136 136 136 136 78 131 131 131
 164 164 164 164 228 228 228 228 228 96 96 34 34 34 34 34 34 129 129 129
 136 136 136 136 136 78 210 210 210 164 164 164 164 228 228 228 228 228 228 96
 34 34 34 34 34 129 129 129 129 98 136 136 136 136 29 29 29 29 6 6
 6 6 228 228 228 228 196 196 196 51 51 34 86 86 86 133 133 133 98 98
 98 98 98 29 29 29 29 6 6 6 6 196 196 196 196 196 196 196 44 44
 86 86 86 86 133 133 133 98 98 98 98 98 29 29 29 29 6 6 6 6
 196 196 196 196 196 196 44 44 44 44 86 86 86 133 133 133 98 98 98 98
 161 29 29 29 29 6 6 6 6 57 57 57 57 57 57 44 44 44 44 44
 1 1 133 133 133 98 98 98 98 161 161 29 29 29 6 6 6 6 57 57
 57 57 57 57 44 44 44 44 44 1 1 133 133 133 98 98 98 161 161 161
 29 29 29 6 6 6 57 57 57 57 57 57 57 44 44 44 44 44 44 82
 82 23 23 59 121 234 234 234 161 161 158 158 148 204 204 204 204 204 57 57
 57 57 44 44 177 177 177 177 82 82 23 23 59 59 234 234 121 121 121 158
 158 148 148 204 204 204 204 204 224 224 224 44 177 177 177 177 177 82 82 23
 23 59 59 59 234 121 121 121 242 148 148 148 148 204 204 204 204 204 224 224
 177 177 177 177 177 177 82 82 23 23 59 59 59 59 59 247 247 148 148 148
 148 148 204 204 204 204 204 204 5 5 177 177 177 177 177 82 82 23 23 59
 59 59 59 59 247 148 148 148 148 148 148 148 204 204 204 204 204 5 5 5
 177 177 177 177 177 82 23 23 59 59 59 59 247 173 148 148 148 148 148 148
 148 204 204 213 213 213 5 5 5 5 5 177 177 177 73 73 73 59 59 59
 12 12 173 173 148 148 148 148 148 148 204 213 213 213 213 18 18 18 18 116
 116 149 149 149 73 73 73 12 12 12 12 173 173 173 173 173 148 215 215 215
 202 231 231 231 18 18 18 18 116 116 149 149 149 4 4 4 12 12 12 12
 173 173 173 173 173 215 215 215 215 202 231 231 231 18 18 18 18 116 116 149
 149 4 4 4 4 4 12 12 12 173 173 173 173 173 215 215 215 215 202 231
 231 231 231 18 18 116 116 116 149 149 4 4 4 4 4 12 12 12 3 173
 173 173 39 39 215 215 215 202 231 231 231 231 18 45 45 45 45 149 4 4
 4 4 4 4 4 3 3 3 3 173 173 39 39 39 215 215 202 231 231 231
 231 231 45 45 45 45 45 4 4 4 145 144 4 72 3 3 3 3 3 39
 39 39 39 39 215 202 231 231 231 231 45 45 45 45 45 45 45 144 144 144
 144 72 72 72 3 3 3 3 39 39 39 39 39 215 202 231 231 231 231 45
 45 45 45 45 45 45 144 144 145 145 72 72 72 3 3 3 3 39 39 39
 39 39 39 55 55 55 55 55 45 45 45 45 45 45 45 144 144 145 145 72
 72 72 72 3 3 35 35 39 39 39 39 92 55 55 55 55 55 96 45 45
 45 45 45 45 144 144 145 145 72 72 72 72 72 3 35 35 39 92 92 92
 92 55 55 55 55 96 96 96 45 45 45 45 45 144 144 145 145 72 72 72
 72 72 35 35 245 92 92 92 92 92 92 55 96 96 96 96 96 96 34 34
 34 34 129 129 129 136 136 140 72 72 72 13 13 13 92 92 92 92 92 92
 96 96 96 96 96 96 34 34 34 34 34 129 129 129 136 136 136 140 140 13
 13 13 13 92 92 92 92 92 92 96 96 96 96 96 34 34 34 34 34 34
 129 129 129 136 136 136 136 136 13 13 13 13 92 92 92 92 92 92 96 96
 96 96 96 34 34 34 34 34 34 129 129 129 136 136 136 136 136 136 13 13
 13 6 6 6 92 92 228 228 228 228 96 96 34 34 34 34 34 129 129 129
 129 136 136 136 136 136 136 29 13 29 6 6 6 6 6 228 228 228 228 228
 96 51 51 51 51 1 1 129 129 129 98 136 136 136 136 29 29 29 29 6
 6 6 6 6 196 196 196 196 196 51 51 51 51 86 86 86 133 133 133 98
 98 98 98 98 29 29 29 29 6 6 6 6 6 196 196 196 196 196 51 51
 51 51 86 86 86 133 133 133 98 98 98 98 98 29 29 29 29 6 6 6
 6 6 57 57 57 57 57 44 44 44 51 86 86 86 133 133 133 98 98 98
 98 161 29 29 29 29 6 6 6 6 57 57 84 84 57 57 57 44 44 51
 1 1 1 1 133 133 98 98 98 98 98 158 29 29 6 6 6 6 6 57
 84 84 84 57 57 44 44 44 44 1 1 1 1 133 133 98 98 98 161 161
 158 158 158 158 6 6 6 6 57 84 84 84 84 57 44 44 44 44 177 177
 82 82 82 82 59 121 234 234 234 158 158 158 158 6 6 204 204 204 204 84
 84 84 57 44 44 177 177 177 177 82 82 82 82 59 59 234 234 121 158 158
 158 158 148 148 204 204 204 204 204 204 224 57 177 177 177 177 177 177 82 82
 82 82 59 59 59 234 121 121 242 242 242 148 148 148 204 204 204 204 204 204
 5 5 177 177 177 177 177 82 82 82 82 59 59 59 59 59 247 148 148 148
 148 148 148 148 204 204 204 204 204 5 5 5 177 177 177 177 82 82 82 82
 59 59 59 59 59 247 148 148 148 148 148 148 148 204 204 204 204 5 5 5
 5 5 177 177 177 82 82 82 73 73 59 59 83 83 173 148 148 148 148 148
 148 148 204 204 204 204 5 5 5 5 5 5 177 149 149 73 73 73 73 73
 83 83 83 173 173 148 148 148 148 148 148 148 202 213 213 18 18 18 18 116
 116 149 149 149 73 73 73 73 73 83 12 83 173 173 173 173 173 148 148 215
 202 202 202 231 18 18 18 18 116 116 116 149 149 149 73 73 73 4 12 12
 12 173 173 173 173 173 215 215 215 202 202 202 231 231 18 18 18 116 116 116
 149 149 149 4 4 4 4 12 12 12 173 173 173 173 173 215 215 215 202 202
 231 231 231 231 18 18 116 116 116 149 149 4 4 4 4 4 12 3 3 3
 173 173 173 39 39 215 215 202 202 231 231 231 231 18 116 116 116 116 149 149
 4 4 4 4 4 4 3 3 3 3 173 173 39 39 39 215 202 202 231 231
 231 231 231 45 45 45 45 45 149 4 4 144 144 4 72 3 3 3 3 3
 39 39 39 39 39 202 202 231 231 231 231 231 45 45 45 45 45 144 144 144
 144 144 72 72 72 3 3 3 3 39 39 39 39 39 202 202 231 231 231 231
 231 45 45 45 45 45 144 144 144 144 145 72 72 72 3 3 3 3 39 39
 39 39 39 39 202 55 55 70 70 70 45 45 45 45 45 144 144 144 145 145
 72 72 72 72 3 3 3 39 39 39 39 92 92 92 55 55 70 70 70 70
 143 143 143 143 144 144 144 145 145 72 72 72 72 72 3 3 39 92 92 92
 92 92 92 55 70 70 70 70 70 143 143 143 143 143 144 144 112 112 72 72
 72 72 72 13 13 13 92 92 92 92 92 92 92 96 96 96 70 141 141 143
 143 143 129 129 129 129 136 136 140 140 140 13 13 13 13 13 92 92 92 92
 92 92 96 96 96 96 141 141 34 34 34 129 129 129 129 136 136 140 140 140
 13 13 13 13 13 92 92 92 92 92 92 96 96 96 96 141 34 34 34 34
 129 129 129 129 136 136 136 140 140 13 13 13 13 13 92 92 92 92 92 96
 96 96 96 96 34 34 34 34 34 129 129 129 129 136 136 136 136 136 13 13
 13 13 6 6 6 6 92 92 228 228 228 96 96 34 34 34 34 1 129 129
 129 129 136 136 136 136 136 13 13 13 13 6 6 6 6 6 228 228 228 228
 228 51 51 51 51 51 1 1 1 129 129 136 98 136 136 136 29 29 29 6
 6 6 6 6 6 6 196 217 196 217 51 51 51 51 51 1 1 1 133 133
 98 98 98 98 98 29 29 29 6 6 6 6 6 6 196 217 217 217 57 51
 51 51 51 51 1 1 1 133 133 98 98 98 98 98 29 29 29 29 6 6
 6 6 6 57 57 84 57 57 57 51 51 51 1 1 1 1 133 133 98 98
 98 98 98 29 29 29 29 6 6 6 6 6 84 84 84 84 84 57 51 51
 51 1 1 1 1 133 133 98 98 98 98 158 158 158 158 158 158 6 6 6
 84 84 84 84 84 84 44 44 44 44 1 1 1 1 133 133 98 98 98 98
 158 158 158 158 158 158 6 6 6 84 84 84 84 84 84 44 44 44 177 177
 1 82 82 82 82 98 98 234 234 158 158 158 158 158 158 158 6 204 204 84
 84 84 84 84 84 177 177 177 177 82 82 82 82 82 82 59 234 234 158 158
 158 158 158 148 148 148 204 204 204 204 84 84 84 5 177 177 177 177 82 82
 82 82 82 82 59 59 234 158 158 242 242 242 148 148 148 148 204 204 204 204
 204 5 5 5 177 177 177 82 82 82 82 82 59 59 59 59 59 219 242 242
 148 148 148 148 148 91 91 91 91 91 5 5 5 5 177 177 82 82 82 82
 82 73 73 83 83 83 219 148 148 148 148 148 148 148 148 91 91 91 5 5
 5 5 5 5 177 82 82 82 73 73 73 73 83 83 83 83 148 148 148 148
 148 148 148 148 91 91 91 5 5 5 5 5 5 5 149 82 73 73 73 73
 185 83 83 83 83 148 148 148 148 148 148 148 148 202 202 153 153 5 5 5
 116 116 149 149 149 73 73 73 73 185 83 83 83 83 173 173 148 173 148 148
 148 202 202 202 153 153 18 18 18 116 116 116 149 149 73 73 73 73 185 83
 83 83 83 173 173 173 173 215 215 202 202 202 202 153 153 18 18 18 116 116
 116 149 149 149 73 73 73 4 83 83 83 173 173 173 173 173 215 215 215 202
 202 202 231 231 231 18 116 116 116 116 149 149 149 4 4 4 4 83 83 3
 3 173 173 173 39 39 215 215 202 202 202 231 231 231 18 116 116 116 116 149
 149 4 4 4 4 4 4 3 3 3 3 173 173 39 39 39 215 202 202 202
 231 231 231 231 116 116 116 116 149 149 4 4 144 144 4 72 3 3 3 3
 3 39 39 39 39 39 202 202 202 231 231 231 231 248 248 248 248 248 144 144
 144 144 144 72 72 72 3 3 3 3 39 39 39 39 39 202 202 202 231 231
 70 70 248 248 248 248 248 144 144 144 144 144 72 72 72 72 3 3 3 39
 39 39 39 39 100 202 100 70 70 70 70 70 248 248 248 248 248 144 144 145
 145 72 72 72 72 3 3 3 39 39 39 92 92 92 92 70 70 70 70 70
 70 143 143 143 143 143 144 144 112 112 72 72 72 72 72 3 13 37 92 92
 92 92 92 92 92 70 70 70 70 70 143 143 143 143 143 112 112 112 112 112
 72 72 72 72 13 13 13 92 92 92 92 92 92 92 70 70 70 70 141 141
 143 143 143 143 112 112 112 112 112 140 140 140 13 13 13 13 13 92 92 92
 92 92 92 70 70 70 141 141 141 141 143 143 129 129 129 112 112 112 140 140
 140 13 13 13 13 92 92 92 92 92 92 92 96 70 141 141 141 141 141 141
 34 129 129 129 129 136 136 140 140 140 13 13 13 13 92 92 92 92 92 92
 92 96 96 141 141 141 141 141 141 1 129 129 129 129 136 136 136 140 140 13
 13 13 13 6 6 6 92 92 92 217 217 217 141 141 141 141 51 1 1 1
 129 129 129 136 136 136 136 140 13 13 13 6 6 6 6 6 6 217 217 217
 217 217 51 51 51 51 51 1 1 1 129 129 136 98 136 136 136 199 199 199
 6 6 6 6 6 6 217 217 217 217 217 217 51 51 51 51 1 1 1 133
 133 98 98 98 98 98 199 199 199 6 6 6 6 6 6 217 217 217 217 217
 217 51 51 51 1 1 1 1 133 133 98 98 98 98 199 199 199 199 6 6
 6 6 6 6 84 84 84 84 84 84 51 51 51 1 1 1 1 133 133 98
 98 98 98 98 199 199 199 6 6 6 6 6 6 32 84 84 84 32 32 51
 51 51 1 1 1 1 133 133 98 98 98 98 158 158 158 158 158 158 6 6
 6 32 32 32 32 32 32 32 51 51 51 1 1 1 1 133 93 93 98 98
 158 158 158 158 158 158 158 158 6 6 32 32 32 84 32 32 32 142 142 246
 246 1 82 82 82 93 93 93 93 158 158 158 158 158 158 158 158 6 32 32
 32 84 84 84 84 84 177 177 177 177 82 82 82 82 82 93 93 93 158 158
 158 242 242 242 158 148 148 91 91 91 91 91 84 84 5 5 177 177 177 82
 82 82 82 82 82 59 93 158 158 158 242 242 242 148 148 148 91 91 91 91
 91 91 5 5 5 5 5 177 82 82 82 82 82 82 59 83 83 83 219 242
 242 242 148 148 148 148 91 91 91 91 91 5 5 5 5 5 177 82 82 82
 82 73 73 73 83 83 83 219 219 242 148 148 148 148 148 91 91 91 91 91
 5 5 5 5 5 5 82 82 82 73 73 73 73 83 83 83 83 219 148 148
 148 148 148 148 91 91 91 91 5 5 5 5 5 5 149 149 73 73 73 73
 73 185 83 83 83 83 83 148 148 148 148 148 148 25 91 91 153 153 5 5
 5 116 116 149 149 149 73 73 73 73 185 83 83 83 83 83 148 148 148 148
 148 25 202 202 153 153 153 153 18 116 116 116 116 149 149 73 73 73 73 185
 83 83 83 83 173 173 173 173 148 215 202 202 202 153 153 153 153 18 116 116
 116 116 149 149 73 73 73 73 185 83 83 83 83 173 173 173 173 215 215 202
 202 202 202 153 153 153 18 116 116 116 116 149 149 149 73 73 73 4 83 83
 83 83 173 173 173 39 39 215 202 202 202 202 202 231 231 18 116 116 116 116
 149 149 149 4 4 4 163 163 163 3 3 3 173 173 39 39 39 202 202 202
 202 202 231 231 231 116 116 116 116 149 149 149 4 144 163 163 163 163 3 3
 3 3 39 39 39 39 100 202 202 100 100 100 70 70 248 248 248 248 248 248
 144 144 144 163 163 163 163 3 3 3 3 37 37 37 37 100 100 100 100 100
 70 70 70 248 248 248 248 248 248 144 144 144 163 163 163 72 72 3 3 37
 37 37 37 37 37 100 100 100 70 70 70 70 248 248 248 248 248 248 248 144
 26 163 163 72 72 72 3 3 37 37 37 37 37 37 37 100 70 70 70 70
 70 70 143 143 143 143 143 143 112 112 112 163 72 72 72 72 3 37 37 37
 37 92 92 92 92 70 70 70 70 70 70 143 143 143 143 143 143 112 112 112
 112 112 140 72 72 13 13 37 92 92 92 92 92 92 92 70 70 70 141 141
 141 143 143 143 143 143 112 112 112 112 112 140 140 13 13 13 13 92 92 92
 92 92 92 92 70 70 70 141 141 141 141 143 143 143 225 225 112 112 112 112
 140 140 13 13 13 13 92 92 92 92 92 92 92 70 70 141 141 141 141 141
 141 141 225 225 225 225 112 112 112 140 140 13 13 13 13 92 92 92 92 92
 92 92 70 70 141 141 141 141 141 141 1 225 225 225 225 225 112 112 140 140
 140 13 13 13 6 6 6 92 92 92 217 217 217 141 141 141 141 141 51 1
 225 225 225 225 225 136 136 136 140 199 199 199 199 6 6 6 6 6 217 217
 217 217 217 51 51 51 51 51 1 1 1 225 225 225 98 136 136 199 199 199
 199 199 6 6 6 6 6 217 217 217 217 217 217 51 51 51 51 1 1 1
 133 133 98 98 98 98 199 199 199 199 199 6 6 6 6 6 217 217 217 217
 217 217 51 51 51 51 1 1 1 133 133 98 98 98 98 199 199 199 199 199
 6 6 6 6 6 217 217 217 217 217 217 51 51 51 51 1 1 1 133 133
 98 98 98 98 199 199 199 199 199 158 6 6 6 6 32 32 32 32 32 142
 142 142 246 246 1 1 1 8 93 93 98 98 158 158 158 158 158 158 158 158
 6 6 32 32 32 32 32 32 142 142 142 246 246 246 1 8 8 93 93 93
 93 158 158 158 158 158 158 158 158 158 6 32 32 32 32 32 32 142 142 142
 246 246 246 8 8 8 93 93 93 93 158 158 158 158 158 158 158 158 158 32
 32 32 32 32 32 32 142 142 142 246 246 246 8 82 8 93 93 93 93 158
 158 158 242 242 242 242 242 148 91 91 91 91 91 91 32 5 5 174 174 174
 82 82 82 82 93 93 93 93 93 158 158 242 242 242 148 148 148 91 91 91
 91 91 91 91 5 5 174 174 174 82 82 82 82 82 73 93 93 83 83 219
 242 242 242 148 148 148 91 91 91 91 91 91 5 5 5 5 174 174 82 82
 82 82 73 73 73 83 83 83 219 219 242 148 148 148 148 148 91 91 91 91
 91 5 5 5 5 5 174 82 82 73 73 73 73 185 83 83 83 219 219 219
 148 148 148 148 25 91 91 91 91 91 5 5 5 5 48 149 73 73 73 73
 73 73 185 83 83 83 83 219 148 148 148 148 25 25 25 25 153 153 153 5
 5 5 116 116 149 149 73 73 73 73 73 185 83 83 83 83 83 148 148 148
 25 25 25 25 25 153 153 153 153 153 116 116 116 116 149 149 73 73 73 73
 185 83 83 83 83 83 173 173 148 25 25 25 202 202 153 153 153 153 153 116
 116 116 116 149 149 73 73 73 73 185 83 83 83 83 83 173 173 24 24 202
 202 202 202 153 153 153 153 9 116 116 116 116 149 149 149 46 46 46 46 83
 83 83 83 83 173 173 37 37 202 202 202 202 202 100 100 126 9 9 116 116
 116 149 149 149 46 46 163 163 163 163 163 3 3 173 37 37 37 100 100 100
 100 100 100 100 100 9 9 116 116 116 149 149 122 46 163 163 163 163 163 163
 3 3 37 37 37 37 37 100 100 100 100 100 100 100 70 248 248 248 248 248
 248 122 163 163 163 163 163 163 163 3 3 37 37 37 37 37 100 100 100 100
 100 70 70 70 248 248 248 248 248 248 248 26 26 163 163 163 163 163 3 37
 37 37 37 37 37 37 100 100 100 70 70 70 70 248 248 248 248 248 248 26
 26 26 26 163 163 163 163 3 37 37 37 37 37 37 37 37 81 81 70 70
 70 70 70 143 143 143 143 143 26 26 26 26 26 163 163 72 97 37 37 37
 37 37 37 37 81 81 81 70 70 70 70 141 143 137 143 143 143 143 112 112
 112 112 112 97 97 97 97 37 37 37 92 92 92 92 81 70 70 70 70 141
 141 141 143 143 143 143 170 170 112 112 112 112 97 97 97 97 13 13 92 92
 92 92 92 92 92 70 70 70 141 141 141 141 143 143 143 225 225 112 112 112
 112 97 97 97 97 13 13 92 92 92 92 92 92 92 70 70 141 141 141 141
 141 141 141 225 225 225 225 112 112 112 97 97 97 97 13 13 92 92 92 92
 92 92 92 70 70 141 141 141 141 141 141 141 225 225 225 225 225 112 112 97
 97 97 97 199 13 6 6 6 92 92 217 217 217 217 141 141 141 141 141 141