# vtk DataFile Version 2.0
Data set from ImportExport Version 6.5.171.b0b162591
ASCII

DATASET RECTILINEAR_GRID
DIMENSIONS 30 30 30
X_COORDINATES 30 float
-1.250000 1.250000 3.750000 6.250000 8.750000 11.250000 13.750000 16.250000 18.750000 21.250000 23.750000 26.250000 28.750000 31.250000 33.750000 36.250000 38.750000 41.250000 43.750000 46.250000 48.750000 
51.250000 53.750000 56.250000 58.750000 61.250000 63.750000 66.250000 68.750000 71.250000 
Y_COORDINATES 30 float
-1.250000 1.250000 3.750000 6.250000 8.750000 11.250000 13.750000 16.250000 18.750000 21.250000 23.750000 26.250000 28.750000 31.250000 33.750000 36.250000 38.750000 41.250000 43.750000 46.250000 48.750000 
51.250000 53.750000 56.250000 58.750000 61.250000 63.750000 66.250000 68.750000 71.250000 
Z_COORDINATES 30 float
-1.250000 1.250000 3.750000 6.250000 8.750000 11.250000 13.750000 16.250000 18.750000 21.250000 23.750000 26.250000 28.750000 31.250000 33.750000 36.250000 38.750000 41.250000 43.750000 46.250000 48.750000 
51.250000 53.750000 56.250000 58.750000 61.250000 63.750000 66.250000 68.750000 71.250000 
CELL_DATA 24389
SCALARS FeatureIds int 1
LOOKUP_TABLE default
 232 232 232 232 232 9 9 9 9 9 9 9 38 111 111 111 111 111 111 111
 219 219 219 219 196 196 196 196 196 232 232 232 232 9 9 9 9 9 9 9
 9 38 163 111 111 111 111 111 111 219 219 219 219 219 196 196 196 196 2 2
 2 2 216 9 9 189 189 189 189 189 163 163 163 111 111 111 111 219 219 219
 219 219 219 219 219 196 196 2 2 2 2 216 189 189 189 189 189 189 163 163
 163 163 163 163 111 111 219 219 219 219 219 219 219 219 219 219 2 2 2 2
 216 55 55 189 189 189 189 163 163 163 163 163 163 163 219 219 219 219 219 219
 219 219 219 219 219 249 249 2 2 195 195 195 195 195 195 195 163 163 163 163
 163 163 163 227 219 219 219 219 219 219 219 219 219 219 249 249 249 249 195 195
 195 195 195 66 66 66 163 163 163 163 163 227 227 227 219 219 219 219 219 219
 219 219 249 249 249 249 249 195 195 195 195 195 66 66 66 163 163 163 163 227
 227 227 191 191 191 219 219 138 138 138 138 249 249 249 249 249 195 195 195 195
 195 195 66 66 163 163 163 227 227 227 227 191 191 191 138 138 138 138 138 138
 138 131 131 131 131 195 195 195 195 195 195 66 66 163 227 227 227 227 227 191
 191 191 191 138 138 138 138 138 138 138 131 58 131 131 131 195 195 195 195 195
 158 158 227 227 227 227 227 227 191 191 191 191 138 138 138 138 138 138 131 131
 58 58 131 131 56 56 56 56 158 158 158 158 227 227 227 227 227 227 191 191
 191 138 138 138 138 138 138 131 131 131 58 131 131 56 56 56 56 56 158 254
 254 254 6 227 227 227 103 103 191 30 138 138 138 138 203 203 121 131 131 131
 131 131 56 56 56 56 56 56 254 254 254 6 6 6 6 103 103 30 30 30
 138 138 121 121 121 121 131 131 131 131 56 56 56 56 56 56 56 254 254 254
 6 6 6 6 103 30 30 30 30 30 26 121 121 121 121 131 131 131 157 56
 56 56 56 56 56 254 254 254 254 6 6 6 6 30 30 30 30 30 26 26
 26 121 121 121 131 157 157 157 157 157 56 56 56 56 254 254 254 254 6 6
 6 6 30 30 30 30 26 26 26 26 121 121 121 157 157 157 157 157 157 157
 157 157 157 254 254 254 254 6 6 6 6 30 30 30 30 26 26 26 26 26
 121 121 157 157 157 157 157 157 157 157 157 157 41 73 73 73 73 73 6 6
 30 30 30 26 26 26 26 26 26 26 26 157 157 157 157 157 157 157 157 41
 41 41 41 73 73 73 73 73 169 169 169 169 26 26 26 26 26 26 26 26
 157 157 157 157 157 157 157 157 41 41 41 41 73 73 73 73 73 169 169 169
 169 169 82 82 82 82 82 82 116 157 157 157 157 157 157 239 239 41 41 41
 41 73 73 73 73 169 169 169 169 169 169 82 82 82 82 82 82 116 116 157
 157 157 239 239 239 239 41 41 41 41 41 108 108 108 169 169 169 169 169 169
 82 82 82 82 82 82 116 116 116 157 157 239 239 239 127 127 194 194 108 108
 108 108 108 108 64 64 64 64 64 82 82 82 82 82 116 116 232 232 232 116
 239 239 239 127 127 194 194 108 108 108 108 108 108 64 64 64 64 64 82 82
 82 82 208 232 232 232 232 232 232 239 239 239 127 127 194 194 108 108 108 108
 108 95 95 64 64 64 64 253 67 67 208 208 232 232 232 232 232 232 232 74
 239 74 74 74 108 108 108 108 108 108 95 95 95 64 64 64 253 253 208 208
 208 208 232 232 232 232 232 232 74 74 74 74 74 108 108 108 108 108 95 95
 95 95 95 64 253 253 253 208 208 208 208 232 232 232 232 232 232 9 9 9
 9 74 108 108 108 108 108 95 95 95 95 95 64 253 253 253 208 208 196 196
 232 232 232 232 232 232 9 9 9 9 9 9 38 38 38 38 95 95 95 95
 95 219 219 219 219 219 219 219 196 232 232 232 232 232 216 9 9 9 9 9
 9 38 38 38 38 111 111 111 111 219 219 219 219 219 219 219 219 219 232 2
 2 232 216 216 216 9 189 189 189 189 38 38 38 163 7 7 111 111 219 219
 219 219 219 219 219 219 219 219 2 2 2 216 216 216 189 189 189 189 189 38
 38 163 163 163 7 7 219 219 219 219 219 219 219 219 219 219 219 2 2 2
 216 216 216 189 189 189 189 189 163 163 163 163 163 7 7 219 219 219 219 219
 219 219 219 219 219 219 249 249 249 216 216 195 195 195 195 195 195 163 163 163
 163 163 163 163 61 219 219 219 219 219 219 219 219 219 219 249 249 249 249 195
 195 195 195 195 195 195 107 107 163 163 163 163 227 227 191 219 219 219 219 219
 219 219 249 249 249 249 249 249 195 195 195 195 195 195 195 107 107 107 163 163
 227 227 191 191 191 191 219 219 219 138 138 249 249 249 249 249 249 195 195 195
 195 195 195 195 107 107 107 107 227 227 227 191 191 191 191 219 138 138 138 138
 138 249 149 249 249 249 195 195 195 195 195 195 158 158 107 107 227 227 227 227
 191 191 191 191 138 138 138 138 138 138 249 58 58 58 58 195 195 195 195 158
 158 158 158 158 50 50 50 227 191 191 191 191 191 138 138 138 138 138 138 131
 58 58 58 58 58 56 56 158 158 158 158 158 158 50 50 50 50 227 191 191
 191 191 138 138 138 138 138 121 121 58 58 58 58 58 56 56 56 56 158 158
 158 254 254 50 50 50 227 103 103 191 30 30 138 138 138 121 121 121 121 58
 58 131 56 56 56 56 56 56 56 254 254 254 6 6 6 6 30 30 30 30
 30 30 138 121 121 121 121 131 131 58 131 56 56 56 56 56 56 56 254 254
 254 6 6 6 6 30 30 30 30 30 30 121 121 121 121 121 131 131 157 157
 56 56 56 56 56 56 254 254 254 254 6 6 6 6 30 30 30 30 30 171
 171 121 121 121 121 131 157 157 157 157 157 56 56 56 56 254 254 254 254 6
 6 6 6 30 30 30 30 30 171 171 171 121 121 121 157 157 157 157 157 157
 157 157 157 56 254 254 254 254 6 6 6 6 30 30 30 30 171 171 171 171
 171 121 121 157 157 157 157 157 157 157 157 157 157 41 254 254 254 6 6 6
 6 30 30 30 30 171 171 171 171 171 142 142 157 157 157 157 157 157 157 157
 41 41 41 41 73 73 73 73 73 6 169 169 169 82 82 82 82 82 82 142
 142 157 157 157 157 157 157 157 41 41 41 41 41 73 73 73 73 77 169 169
 169 169 82 82 82 82 82 82 82 116 116 157 157 157 157 239 239 239 41 41
 41 41 41 73 73 73 77 169 169 169 169 82 82 82 82 82 82 82 116 116
 116 116 157 239 239 239 239 41 41 41 41 63 108 108 77 77 169 169 169 169
 82 82 82 82 82 82 116 116 116 116 116 116 239 239 239 239 239 41 41 63
 63 108 108 108 64 64 64 64 64 82 82 82 82 82 82 116 116 116 116 116
 116 239 239 239 239 239 63 63 63 63 108 108 108 64 64 64 64 64 64 82
 82 82 82 82 116 116 232 232 232 232 239 239 239 239 74 74 63 63 63 108
 108 95 95 95 64 64 64 64 253 67 67 208 208 232 232 232 232 232 232 232
 74 74 74 74 74 63 63 108 108 108 95 95 95 95 64 64 64 253 253 208
 208 208 232 232 232 232 232 232 232 74 74 74 74 74 74 108 108 108 108 95
 95 95 95 95 64 64 253 253 208 208 208 232 232 232 232 232 232 232 74 74
 74 74 74 74 108 108 108 95 95 95 95 95 95 64 219 219 219 219 208 196
 232 232 232 232 232 232 232 74 9 9 9 74 74 38 38 38 38 95 95 95
 95 95 219 219 219 219 219 219 219 219 232 232 232 232 216 216 216 9 9 9
 9 9 38 38 38 38 38 95 95 95 219 219 219 219 219 219 219 219 219 232
 232 2 216 216 216 216 216 189 189 189 38 38 38 38 38 7 7 7 7 219
 219 219 219 219 219 219 219 219 219 2 2 216 216 216 216 216 189 189 189 38
 38 38 38 7 7 7 7 7 219 219 219 219 219 219 219 219 219 219 249 249
 216 216 216 216 216 189 189 189 189 38 38 38 7 7 7 7 7 219 219 219
 219 219 219 219 219 219 219 249 249 249 216 216 216 195 195 195 195 195 107 107
 107 163 7 7 7 61 61 219 219 219 219 219 219 219 219 249 249 249 249 249
 216 195 195 195 195 195 195 107 107 107 107 7 7 61 61 61 219 219 219 219
 219 219 219 249 249 249 249 249 249 195 195 195 195 195 195 195 107 107 107 107
 107 61 61 61 191 191 191 219 219 11 138 11 249 249 249 249 249 149 149 195
 195 195 195 195 195 107 107 107 107 107 227 191 191 191 191 191 191 11 11 138
 138 149 149 149 149 149 149 149 195 195 195 195 158 158 158 107 107 107 50 50
 191 191 191 191 191 191 138 138 138 138 138 149 58 58 149 149 149 195 195 158
 158 158 158 158 107 50 50 50 50 191 191 191 191 191 191 138 138 138 138 138
 149 58 58 58 58 58 195 158 158 158 158 158 158 158 50 50 50 50 50 191
 191 191 191 191 138 138 138 138 121 58 58 58 58 58 56 56 56 56 158 158
 158 158 158 50 50 50 50 50 191 191 191 30 30 138 138 138 121 121 121 121
 58 58 58 56 56 56 56 56 56 158 254 254 254 6 6 6 6 30 30 30
 30 30 30 121 121 121 121 121 131 131 58 56 56 56 56 56 56 56 56 254
 254 254 6 6 6 6 30 30 30 30 30 30 171 121 121 203 203 131 131 157
 157 56 56 56 56 56 56 56 254 254 254 6 6 6 6 30 30 30 30 30
 171 171 171 121 121 121 157 157 157 157 157 157 157 56 56 56 56 254 254 254
 254 6 6 6 30 30 30 30 171 171 171 171 121 121 121 157 157 157 157 157
 157 157 157 56 56 254 254 254 254 254 6 6 6 30 30 30 30 171 171 171
 171 171 142 142 157 157 157 157 157 157 157 157 157 41 41 254 254 254 254 6
 6 6 30 30 30 171 171 171 171 171 171 142 142 157 157 157 157 157 157 157
 157 41 41 41 41 73 73 73 73 77 77 77 30 30 171 171 171 171 171 142
 142 142 157 157 157 157 157 157 157 41 41 41 41 41 41 73 73 77 77 77
 77 169 169 82 82 82 82 82 82 142 116 116 116 157 157 157 239 239 239 41
 41 41 41 41 41 73 77 77 77 77 169 169 82 82 82 82 82 82 116 116
 116 116 116 116 239 239 239 239 41 41 41 63 63 63 63 77 77 77 64 64
 64 82 82 82 82 82 82 116 116 116 116 116 116 239 239 239 239 239 41 63
 63 63 63 63 77 77 64 64 64 64 64 82 82 82 82 116 116 116 116 116
 116 116 239 239 239 239 239 63 63 63 63 63 63 95 64 64 64 64 64 64
 64 82 147 147 116 116 116 232 232 232 232 239 239 74 74 74 63 63 63 63
 63 108 95 95 95 64 64 64 64 64 147 147 147 147 232 232 232 232 232 232
 232 74 74 74 74 74 63 63 63 63 108 95 95 95 95 64 64 64 64 147
 147 147 208 232 232 232 232 232 232 74 74 74 74 74 74 74 63 63 63 95
 95 95 95 95 95 64 64 64 219 147 147 208 232 232 232 232 232 232 74 74
 74 74 74 74 74 63 108 108 95 95 95 95 95 95 64 64 219 219 219 208
 196 232 232 232 232 232 232 74 74 74 74 74 74 74 38 38 38 38 38 95
 95 95 95 219 219 219 219 219 219 219 219 232 232 232 232 216 216 216 216 9
 9 9 38 38 38 38 38 7 7 95 95 35 219 219 219 219 219 219 219 219
 232 229 229 216 216 216 216 216 216 189 189 38 38 38 38 38 7 7 7 35
 35 219 219 219 219 219 219 219 219 219 229 229 216 216 216 216 216 216 189 189
 38 38 38 38 7 7 7 7 35 35 219 219 219 219 219 219 219 219 219 249
 249 216 216 216 216 216 216 189 189 38 38 38 38 7 7 7 7 7 35 219
 219 219 219 219 219 219 219 219 249 249 249 216 216 216 216 195 195 195 156 107
 107 107 7 7 7 7 61 61 219 219 219 219 219 219 219 219 249 249 249 249
 249 43 43 195 195 195 195 195 107 107 107 107 7 7 61 61 61 61 219 219
 219 11 11 11 11 249 249 249 249 149 43 43 195 195 195 195 195 107 107 107
 107 107 61 61 61 61 191 191 11 11 11 11 11 11 149 149 149 149 149 43
 43 195 195 195 195 195 107 107 107 107 107 61 61 61 191 191 191 11 11 11
 11 11 11 149 149 149 149 149 149 195 195 195 158 158 158 158 107 107 107 50
 50 191 191 191 191 191 11 11 11 11 11 149 149 149 149 149 149 149 195 195
 158 158 158 158 158 107 50 50 50 50 50 191 191 191 191 11 11 11 11 138
 149 149 149 149 149 149 149 158 158 158 158 158 158 158 158 50 50 50 50 50
 191 191 191 191 11 11 138 138 138 121 58 58 58 58 58 56 56 56 158 158
 158 158 158 158 50 50 50 50 50 50 191 30 30 30 138 138 138 121 121 121
 121 58 58 39 56 56 56 56 56 158 158 158 254 254 50 50 50 50 30 30
 30 30 30 30 121 121 121 121 121 222 222 39 157 56 56 56 56 56 56 56
 254 254 254 6 6 6 6 30 30 30 30 30 30 171 171 121 203 203 222 222
 157 157 157 56 56 56 56 56 56 254 254 254 6 6 6 6 30 30 30 30
 171 171 171 171 142 121 121 222 119 157 157 157 157 157 244 56 56 254 254 254
 254 254 6 6 6 30 30 30 30 171 171 171 171 142 142 142 119 119 157 157
 157 157 157 244 244 244 236 254 254 254 254 6 6 6 30 30 30 171 171 171
 171 171 142 142 142 119 119 157 157 157 157 157 244 244 244 41 254 254 254 254
 6 6 6 30 30 30 171 171 171 171 142 142 142 142 119 119 119 157 157 157
 157 157 41 41 41 41 254 254 254 77 77 77 77 46 46 171 171 171 171 142
 142 142 142 119 119 119 119 157 157 157 41 41 41 41 41 63 63 77 77 77
 77 77 46 46 46 82 82 82 142 142 142 116 116 116 119 119 119 239 239 239
 41 41 41 41 63 63 77 77 77 77 77 77 46 46 46 82 82 82 142 116
 116 116 116 116 116 239 239 239 239 239 41 63 63 63 63 77 77 77 77 77
 77 46 46 46 82 82 82 116 116 116 116 116 116 116 239 239 239 239 239 63
 63 63 63 63 63 77 77 77 77 64 64 46 147 147 147 147 116 116 116 116
 116 116 116 239 239 239 129 129 63 63 63 63 63 63 77 77 77 64 64 64
 147 147 147 147 147 147 116 116 116 116 116 116 239 129 129 129 129 63 63 63
 63 63 63 95 95 95 64 64 64 147 147 147 147 147 147 116 116 232 232 232
 232 74 74 74 74 74 74 63 63 63 63 63 95 95 95 95 64 64 147 147
 147 147 147 147 232 232 232 232 232 232 74 74 74 74 74 74 74 63 63 63
 95 95 95 95 95 95 64 147 147 147 147 147 147 232 232 232 232 232 232 74
 74 74 74 74 74 74 63 63 63 95 95 95 95 95 95 95 95 219 219 147
 147 147 232 232 229 229 232 232 74 74 74 74 74 74 74 38 38 38 38 220
 220 220 220 220 220 219 219 219 219 219 143 143 143 229 229 229 216 216 216 216
 216 9 74 38 38 38 38 38 7 7 220 35 35 35 219 219 219 219 219 219
 219 229 229 229 229 216 216 216 216 216 216 156 38 38 38 38 38 7 7 7
 35 35 35 219 219 219 219 219 219 219 229 229 229 229 216 216 216 216 216 156
 156 156 38 38 38 7 7 7 7 35 35 35 219 219 219 219 219 219 219 229
 229 49 229 216 216 216 216 216 156 156 156 38 38 7 7 7 7 7 35 35
 35 219 219 219 219 219 219 219 49 49 49 49 216 216 216 216 216 195 156 156
 156 107 7 7 7 7 7 61 61 35 219 219 219 219 219 11 11 49 149 149
 149 149 43 43 43 43 195 195 156 107 107 107 107 7 7 61 61 61 61 11
 11 11 11 11 11 11 149 149 149 149 149 43 43 43 43 195 195 107 107 107
 107 107 7 61 61 61 61 61 11 11 11 11 11 11 11 149 149 149 149 149
 43 43 43 43 195 195 107 107 107 107 107 107 61 61 61 61 61 11 11 11
 11 11 11 11 149 149 149 149 149 43 43 43 158 158 158 158 158 107 107 107
 50 50 61 191 191 191 11 11 11 11 11 11 11 149 149 149 149 149 149 43
 173 158 158 158 158 158 107 50 50 50 50 50 191 191 191 11 11 11 11 11
 11 149 149 149 149 149 149 149 173 173 158 158 158 158 158 158 50 50 50 50
 50 50 191 191 114 11 11 11 11 11 149 149 149 149 149 149 173 173 173 158
 158 158 158 158 158 50 50 50 50 50 50 114 114 114 114 11 11 11 121 121
 121 222 39 39 39 39 56 56 56 158 158 158 158 158 254 50 50 50 50 50
 114 30 30 114 114 171 121 121 121 121 222 222 39 39 65 65 56 56 56 56
 236 236 236 15 15 15 15 15 15 30 30 30 30 171 171 142 142 203 203 222
 222 222 157 157 244 244 244 56 236 236 236 236 15 15 15 15 15 15 30 30
 134 171 171 171 142 142 142 142 222 119 157 157 157 244 244 244 244 236 236 236
 236 254 15 15 15 15 15 134 134 134 171 171 171 142 142 142 142 119 119 119
 157 157 157 244 244 244 244 236 236 91 91 91 15 15 15 134 134 134 134 171
 171 171 142 142 142 142 119 119 119 119 157 157 244 244 244 244 236 236 91 91
 91 15 77 77 77 134 134 134 171 171 142 142 142 142 142 119 119 119 119 119
 119 244 244 244 244 41 91 91 91 91 77 77 77 77 46 46 46 171 171 142
 142 142 142 142 119 119 119 119 119 119 130 130 130 41 41 63 91 91 77 77
 77 77 77 46 46 46 46 46 142 142 142 142 142 179 119 119 119 119 130 130
 130 130 130 41 63 63 63 77 77 77 77 77 77 46 46 46 46 82 142 142
 142 116 179 179 179 179 119 239 130 130 130 63 63 63 63 63 77 77 77 77
 77 77 46 46 46 46 46 142 142 116 116 116 179 179 179 179 239 239 129 129
 63 63 63 63 63 63 77 77 77 77 77 46 46 147 147 147 147 223 116 116
 179 179 179 179 179 129 129 129 129 63 63 63 63 63 63 77 77 77 77 77
 64 147 147 147 147 147 147 116 116 179 179 179 179 129 129 129 129 129 129 63
 63 63 63 215 215 215 220 220 220 64 147 147 147 147 147 147 179 179 232 232
 232 232 74 74 129 129 74 74 63 63 63 63 215 215 215 220 220 220 64 147
 147 147 147 147 147 232 232 232 232 232 232 74 74 74 74 74 74 74 63 63
 63 215 215 220 220 220 220 220 147 147 147 147 147 147 143 232 232 232 232 232
 74 74 74 74 74 74 74 63 63 215 215 220 220 220 220 220 220 147 147 147
 147 147 143 143 143 229 229 229 229 74 74 74 74 74 74 74 38 38 38 220
 220 220 220 220 174 174 174 80 219 219 143 143 143 143 229 229 229 229 216 216
 216 74 74 156 156 38 38 38 38 7 7 220 35 35 35 35 219 219 219 219
 143 229 229 229 229 229 229 216 216 216 216 156 156 156 156 38 38 7 7 7
 7 35 35 35 35 219 219 219 219 219 229 229 229 229 229 229 216 216 216 216
 156 156 156 156 38 7 7 7 7 7 35 35 35 35 219 219 219 219 219 229
 229 49 49 229 49 216 216 216 216 156 156 156 156 156 7 7 7 7 7 35
 35 35 35 219 219 219 219 219 49 49 49 49 49 49 43 43 43 43 156 156
 156 156 156 7 7 7 7 7 61 61 35 35 11 11 11 11 11 49 49 49
 49 49 43 43 43 43 43 156 156 156 156 107 107 7 7 7 61 61 61 61
 11 11 11 11 11 11 11 49 149 149 149 43 43 43 43 43 188 188 120 107
 107 107 107 7 7 61 61 61 61 11 11 11 11 11 11 11 149 149 149 149
 149 43 43 43 188 188 188 120 120 107 107 107 107 7 61 61 61 61 11 11
 11 11 11 11 11 149 149 149 149 149 43 43 188 188 188 188 120 120 120 107
 107 50 50 61 61 191 191 11 11 11 11 11 11 11 102 102 102 102 102 102
 173 173 173 173 158 158 120 120 97 50 50 50 50 191 191 114 11 11 11 11
 11 11 102 102 102 102 102 102 173 173 173 173 173 158 158 158 97 97 50 50
 50 50 114 114 114 114 11 11 11 11 11 102 102 102 39 39 39 173 173 173
 173 173 158 158 158 97 97 50 50 50 50 114 114 114 114 114 114 133 133 133
 133 133 222 39 39 39 39 173 173 90 90 158 158 236 236 15 15 15 15 15
 114 114 114 114 114 114 133 133 133 133 133 222 222 39 39 65 65 90 90 90
 236 236 236 236 15 15 15 15 15 114 114 114 114 114 114 142 133 133 133 133
 222 222 222 39 65 65 244 244 244 236 236 236 236 15 15 15 15 15 114 114
 114 114 114 171 142 142 142 142 142 222 222 222 39 65 244 244 244 244 236 236
 236 236 91 15 15 15 15 15 134 134 134 134 171 142 142 142 142 142 119 119
 119 119 119 244 244 244 244 244 236 236 91 91 91 15 15 15 134 134 134 134
 134 171 142 142 142 142 142 119 119 119 119 119 244 244 244 244 244 236 91 91
 91 91 91 15 77 77 134 134 134 134 142 142 142 142 142 142 119 119 119 119
 119 119 244 244 244 244 236 91 91 91 91 91 77 77 77 46 46 46 46 142
 142 142 142 142 142 119 119 119 119 119 119 130 130 130 130 130 91 91 91 91
 77 77 77 77 46 46 46 46 46 142 142 142 142 142 179 119 119 119 119 130
 130 130 130 130 130 63 29 29 29 77 77 77 77 77 46 46 46 46 142 142
 142 142 179 179 179 179 179 119 130 130 130 130 130 63 63 29 29 29 77 77
 77 77 77 46 46 46 46 46 142 223 223 179 179 179 179 179 179 129 129 130
 130 130 63 63 29 29 29 77 77 77 77 77 46 46 147 147 147 147 223 223
 179 179 179 179 179 179 129 129 129 129 63 63 63 63 29 29 77 77 77 77
 77 46 147 147 147 147 147 223 223 179 179 179 179 179 179 129 129 129 129 129
 63 63 63 29 215 215 215 215 220 220 220 147 147 147 147 147 223 223 179 179
 179 179 179 129 129 129 129 129 74 63 63 63 29 215 215 215 220 220 220 174
 147 147 147 147 147 147 143 143 143 232 232 232 74 74 74 74 74 74 74 63
 63 215 215 215 220 220 220 220 174 147 147 147 147 147 143 143 143 143 143 143
 232 74 74 74 74 74 74 74 63 215 215 215 220 220 220 220 174 174 174 147
 147 147 147 143 143 143 143 229 229 229 229 74 74 74 74 156 156 156 156 38
 220 220 220 220 174 174 174 174 80 80 80 143 143 143 143 229 229 229 229 229
 216 216 74 156 156 156 156 156 38 38 125 220 174 174 174 174 174 80 80 155
 155 143 143 229 229 229 229 229 216 216 216 156 156 156 156 156 156 7 7 125
 7 7 35 35 35 35 35 146 155 155 155 229 229 229 229 229 229 216 216 216
 156 156 156 156 156 156 7 7 125 7 7 35 35 35 35 35 219 146 146 229
 229 229 49 49 49 49 49 216 216 156 156 156 156 156 156 7 7 7 7 7
 35 35 35 35 146 11 11 11 11 49 49 49 49 49 49 43 43 43 156 156
 156 156 156 156 7 7 7 7 7 61 35 35 226 11 11 11 11 11 49 49
 49 49 49 49 43 43 43 43 156 156 156 156 156 7 7 7 7 61 61 61
 226 226 11 11 11 11 11 49 49 102 102 102 102 43 43 43 188 188 188 120
 120 120 193 193 7 7 61 61 61 226 226 11 11 11 11 11 11 102 102 102
 102 102 43 43 188 188 188 188 120 120 120 193 193 193 193 61 61 61 226 226
 11 11 11 11 11 102 102 102 102 102 102 102 188 188 188 188 188 120 120 120
 120 193 193 193 61 61 226 226 226 11 11 11 11 11 102 102 102 102 102 102
 102 173 173 173 173 173 120 120 120 97 97 97 50 50 114 114 114 226 11 11
 11 11 11 102 102 102 102 102 102 173 173 173 173 173 173 120 120 97 97 97
 97 50 50 114 114 114 114 114 11 11 11 133 102 102 102 39 39 39 173 173
 173 173 173 173 173 97 97 97 97 97 50 114 114 114 114 114 114 114 133 133
 133 133 133 222 39 39 39 39 173 90 90 90 90 90 236 97 97 97 15 15
 114 114 114 114 114 114 114 133 133 133 133 133 222 222 39 39 65 65 65 90
 90 90 236 236 236 15 15 15 15 15 114 114 114 114 114 114 114 133 133 133
 133 222 222 222 39 65 65 65 65 90 236 236 236 236 91 15 15 15 15 114
 114 114 114 114 114 142 142 142 133 222 222 222 222 39 65 65 65 244 244 236
 236 236 91 91 91 15 15 15 114 114 114 134 134 142 142 142 142 142 222 222
 222 119 119 65 65 244 244 244 244 236 236 91 91 91 91 15 15 134 134 134
 134 134 142 142 142 142 142 142 119 119 119 119 119 244 244 244 244 244 236 91
 91 91 91 91 15 77 77 134 134 134 134 142 142 142 142 142 142 119 119 119
 119 119 119 244 244 244 244 236 91 91 91 91 91 77 77 77 77 46 46 46
 142 142 142 142 142 142 119 119 119 119 119 119 130 130 130 130 109 91 91 91
 91 77 77 77 77 77 46 46 46 46 142 142 142 142 142 179 119 119 119 119
 119 130 130 130 130 130 29 29 29 29 77 77 77 77 77 46 46 46 46 142
 142 142 142 142 179 179 179 179 119 119 130 130 130 130 29 29 29 29 29 77
 77 77 77 77 46 46 46 46 46 223 223 223 223 179 179 179 179 179 129 130
 130 130 109 63 29 29 29 29 77 77 77 77 77 46 46 147 147 147 223 223
 223 223 179 179 179 179 179 129 129 129 129 129 63 29 29 29 29 29 77 77
 77 77 46 147 147 147 147 147 223 223 223 179 179 179 179 179 129 129 129 129
 129 63 29 29 29 29 215 215 215 220 220 147 147 147 147 147 147 223 223 179
 143 179 179 179 129 129 129 129 129 154 154 29 29 29 215 215 215 220 220 220
 174 147 147 147 147 147 143 143 143 143 143 143 143 74 74 74 74 154 154 154
 154 29 29 215 215 220 220 220 174 174 80 80 80 147 147 143 143 143 143 143
 143 143 74 74 74 74 154 154 154 154 154 215 215 220 220 220 174 174 174 174
 80 80 80 80 143 143 143 143 143 229 229 229 229 154 154 154 154 154 154 154
 217 217 220 220 174 174 174 174 174 80 80 80 155 143 143 143 229 229 229 229
 229 229 156 156 156 156 156 156 156 156 125 125 125 174 174 174 174 174 146 155
 155 155 143 143 143 229 229 229 229 229 216 156 156 156 156 156 156 156 156 125
 125 125 7 35 35 35 146 146 146 155 155 155 143 229 229 229 229 229 229 216
 156 156 156 156 156 156 156 156 125 125 125 7 35 35 35 146 146 146 146 146
 146 49 49 49 49 49 49 49 49 156 156 156 156 156 156 156 156 125 125 7
 7 35 35 35 226 146 146 146 146 49 49 49 49 49 49 49 49 43 54 156
 156 156 156 156 156 156 7 7 7 7 61 226 226 226 226 226 11 11 49 49
 49 49 49 49 49 43 43 43 188 156 156 156 156 156 193 193 7 7 7 226
 226 226 226 226 11 11 11 11 49 49 102 102 102 102 43 43 188 188 188 188
 120 120 120 193 193 193 193 61 226 226 226 226 226 11 11 11 11 102 102 102
 102 102 102 102 188 188 188 188 188 120 120 120 193 193 193 193 193 226 226 226
 226 226 11 11 11 11 102 102 102 102 102 102 102 188 188 188 188 188 120 120
 120 120 193 193 193 193 226 226 226 226 226 11 11 11 11 102 102 102 102 102
 102 102 173 173 173 173 173 120 120 120 97 97 211 211 211 226 226 226 226 226
 11 11 11 11 102 102 102 102 102 102 173 173 173 173 173 173 120 120 97 97
 97 211 211 114 114 114 114 114 114 11 11 133 133 133 102 102 39 39 39 173
 173 173 173 173 173 173 97 97 97 97 211 211 114 114 114 114 114 114 114 133
 133 133 133 133 39 39 39 39 39 65 90 90 90 90 173 192 192 192 192 15
 15 114 114 114 114 114 114 114 140 133 133 133 133 222 222 39 39 65 65 65
 90 90 90 236 236 192 192 15 15 15 15 114 114 114 114 114 114 140 133 133
 133 133 222 222 39 39 65 65 65 65 90 236 236 236 91 91 91 15 15 15
 114 114 114 114 114 114 140 140 133 133 222 222 222 222 39 65 65 65 65 244
 236 236 236 91 91 91 91 15 15 114 114 114 114 114 114 140 142 142 142 222
 222 222 222 119 65 65 65 244 244 236 236 91 91 91 91 91 91 91 114 114
 114 134 134 142 142 142 142 142 142 117 117 117 119 119 244 244 244 244 244 236
 91 91 91 91 91 91 77 221 221 134 134 134 142 142 142 142 142 142 117 117
 119 119 119 119 244 244 244 109 109 91 91 91 91 91 77 77 221 221 221 46
 46 142 142 142 142 142 142 117 119 119 119 119 119 130 130 109 109 109 109 91
 91 91 77 77 77 221 221 221 46 46 46 142 142 142 142 142 76 76 119 25
 25 25 130 130 109 109 109 29 29 29 29 77 77 77 77 221 221 46 46 46
 142 142 142 223 223 179 179 179 25 25 25 168 168 109 109 109 29 29 29 29
 77 77 77 77 221 221 46 46 46 223 223 223 223 223 179 179 179 179 25 168
 168 168 109 109 109 29 29 29 29 29 77 77 77 221 221 221 147 147 147 223
 223 223 223 179 179 179 179 179 168 168 168 168 154 29 29 29 29 29 29 77
 77 77 77 221 147 147 147 147 223 223 223 223 179 179 179 179 179 129 129 154
 154 154 154 29 29 29 29 29 215 220 220 174 80 80 147 147 147 147 223 223
 223 143 143 179 179 179 154 154 154 154 154 154 154 29 29 29 215 220 220 174
 174 174 80 80 80 80 80 143 143 143 143 143 143 143 154 154 154 154 154 154
 154 154 154 29 215 220 220 220 174 174 174 80 80 80 80 80 143 143 143 143
 143 143 143 154 154 154 154 154 154 154 154 154 154 220 220 220 174 174 174 174
 80 80 80 80 80 143 143 143 143 143 143 229 229 154 154 154 154 154 154 154
 154 217 217 217 217 174 174 174 174 174 80 80 155 155 143 143 143 238 238 238
 238 238 154 154 154 154 154 156 156 156 217 217 217 217 174 174 174 174 174 146
 155 155 155 155 143 143 238 238 238 238 238 123 123 156 156 156 156 156 156 156
 125 125 125 174 174 174 174 146 146 146 146 155 155 143 238 238 238 238 238 238
 54 54 156 156 156 156 156 156 156 125 125 125 7 35 35 35 146 146 146 146
 146 146 238 238 49 49 49 49 49 54 54 54 156 156 156 156 156 156 125 125
 125 7 35 226 226 146 146 146 146 146 69 49 49 49 49 49 49 49 54 54
 54 54 156 156 156 156 156 193 7 7 7 226 226 226 226 226 226 146 146 49
 49 49 49 49 49 49 49 43 54 54 54 156 156 156 156 193 193 193 193 7
 226 226 226 226 226 226 226 11 11 49 49 102 102 102 102 102 188 188 188 188
 188 120 120 193 193 193 193 193 193 226 226 226 226 226 226 11 11 11 102 102
 102 102 102 102 102 188 188 188 188 188 120 120 120 193 193 193 193 193 226 226
 226 226 226 226 11 11 11 102 102 102 102 102 102 102 188 188 188 188 188 120
 120 120 211 193 193 193 193 226 226 226 226 226 226 11 11 11 102 102 102 102
 102 102 102 173 173 173 173 173 120 120 211 211 211 211 211 160 160 226 226 226
 226 226 11 11 102 102 102 102 102 102 102 173 173 173 173 173 173 120 211 211
 211 211 211 211 211 160 160 114 57 57 57 11 133 133 133 102 102 39 39 39
 39 173 173 173 173 173 173 211 211 211 211 211 211 160 114 114 114 114 114 114
 133 133 133 133 133 39 39 39 39 39 65 90 90 90 90 90 192 192 192 192
 192 192 114 114 114 114 114 114 114 140 133 133 133 133 222 39 39 39 39 65
 65 90 90 90 236 192 192 192 192 192 15 114 114 114 114 114 114 114 140 140
 133 133 133 222 222 39 39 65 65 65 65 90 90 236 91 91 91 91 91 201
 201 114 114 114 114 114 140 140 140 140 133 222 222 222 222 39 65 65 65 65
 244 236 236 91 91 91 91 91 201 201 201 114 114 114 114 140 140 140 140 140
 222 117 117 117 117 65 65 65 65 244 236 236 91 91 91 91 91 201 201 201
 201 114 114 114 140 140 140 142 142 142 117 117 117 117 119 65 244 244 244 109
 91 91 91 91 91 91 201 201 201 221 221 221 134 48 48 142 142 142 117 117
 117 117 117 25 25 205 109 109 109 109 91 91 91 91 91 201 221 221 221 221
 221 221 48 48 142 142 142 117 117 117 117 25 25 25 25 109 109 109 109 109
 91 91 91 77 221 221 221 221 221 221 221 48 48 142 142 142 117 76 76 25
 25 25 25 25 109 109 109 109 109 29 29 29 77 77 221 221 221 221 221 221
 48 48 142 223 223 76 76 76 25 25 25 25 168 168 109 109 109 109 29 29
 29 29 77 221 221 221 221 221 221 221 223 223 223 223 223 223 76 25 25 25
 25 168 168 168 109 109 29 29 29 29 29 77 77 221 221 221 221 221 147 223
 223 223 223 223 179 179 179 25 25 168 168 168 168 154 29 29 29 29 29 29
 77 77 221 221 221 221 147 147 147 223 223 223 223 179 179 179 179 25 154 154
 154 154 154 154 29 29 29 29 29 215 220 221 221 80 80 80 80 80 80 223
 223 223 143 143 179 179 154 154 154 154 154 154 154 154 29 29 29 29 220 174
 174 174 80 80 80 80 80 80 143 143 143 143 143 143 143 154 154 154 154 154
 154 154 154 154 29 29 217 220 174 174 174 174 80 80 80 80 80 143 143 143
 143 143 143 143 154 154 154 154 154 154 154 154 154 154 217 217 217 174 174 174
 174 80 80 80 80 80 143 143 143 143 143 238 238 14 154 154 154 154 154 154
 154 217 217 217 217 217 217 174 174 174 174 80 80 155 155 143 143 143 238 238
 238 238 238 123 123 154 154 154 154 154 217 217 217 217 217 217 174 174 174 174
 146 146 155 155 155 143 143 238 238 238 238 238 123 123 123 123 156 156 156 156
 217 217 217 217 204 204 204 174 146 146 146 146 155 69 69 238 238 238 238 238
 238 123 123 123 123 156 156 156 156 156 217 217 204 204 204 204 204 146 146 146
 146 146 69 69 238 238 238 238 238 165 165 54 54 54 156 156 156 156 156 125
 204 204 204 204 226 226 146 146 146 146 146 69 69 238 49 49 49 49 165 165
 54 54 54 156 156 156 156 193 193 193 204 204 226 226 226 226 226 146 146 146
 69 69 49 49 49 49 49 165 165 54 54 54 156 156 156 193 193 193 193 193
 213 226 226 226 226 226 226 226 226 69 49 49 102 102 102 102 165 188 54 54
 54 156 120 120 193 193 193 193 193 213 226 226 226 226 226 226 226 11 243 243
 102 102 102 102 102 102 188 188 188 188 188 120 120 193 193 193 193 193 213 226
 226 226 226 226 226 226 11 243 243 102 102 102 102 102 102 188 188 188 188 188
 120 120 211 211 193 193 193 213 226 226 226 226 226 226 226 11 243 243 102 102
 102 102 102 102 173 173 173 173 173 120 211 211 211 211 211 211 160 160 160 160