# vtk DataFile Version 2.0
Data set from ImportExport Version 6.5.171.b0b162591
ASCII

DATASET RECTILINEAR_GRID
DIMENSIONS 30 30 30
X_COORDINATES 30 float
-1.250000 1.250000 3.750000 6.250000 8.750000 11.250000 13.750000 16.250000 18.750000 21.250000 23.750000 26.250000 28.750000 31.250000 33.750000 36.250000 38.750000 41.250000 43.750000 46.250000 48.750000 
51.250000 53.750000 56.250000 58.750000 61.250000 63.750000 66.250000 68.750000 71.250000 
Y_COORDINATES 30 float
-1.250000 1.250000 3.750000 6.250000 8.750000 11.250000 13.750000 16.250000 18.750000 21.250000 23.750000 26.250000 28.750000 31.250000 33.750000 36.250000 38.750000 41.250000 43.750000 46.250000 48.750000 
51.250000 53.750000 56.250000 58.750000 61.250000 63.750000 66.250000 68.750000 71.250000 
Z_COORDINATES 30 float
-1.250000 1.250000 3.750000 6.250000 8.750000 11.250000 13.750000 16.250000 18.750000 21.250000 23.750000 26.250000 28.750000 31.250000 33.750000 36.250000 38.750000 41.250000 43.750000 46.250000 48.750000 
51.250000 53.750000 56.250000 58.750000 61.250000 63.750000 66.250000 68.750000 71.250000 
CELL_DATA 24389
SCALARS FeatureIds int 1
LOOKUP_TABLE default
 103 103 103 103 103 103 103 103 103 103 94 94 94 237 237 110 110 110 41 41
 41 181 181 181 181 240 240 240 240 103 103 103 103 103 103 103 103 103 103 94
 94 94 94 237 110 110 110 110 41 41 181 181 181 181 229 229 240 240 103 103
 103 103 103 103 103 103 103 103 94 94 94 94 94 110 110 110 110 110 181 181
 181 181 181 229 229 229 229 161 161 161 161 161 161 161 161 21 21 94 94 94
 94 94 110 110 110 110 110 181 181 181 181 181 229 229 229 229 161 161 161 161
 161 161 161 161 21 21 94 94 94 94 94 86 86 86 86 86 17 17 17 181
 17 17 229 229 119 119 119 161 161 161 161 161 161 21 21 21 94 94 94 94
 86 86 86 86 86 86 17 17 17 17 17 229 119 119 119 119 119 161 161 161
 161 161 21 21 21 94 94 94 86 86 86 86 86 86 86 17 17 17 17 8
 119 119 119 119 119 119 119 161 161 161 161 21 21 21 216 216 86 86 86 86
 86 86 86 86 174 174 174 8 8 119 119 119 119 119 119 119 161 199 161 168
 168 21 216 216 216 76 86 86 86 86 86 86 86 174 174 174 48 8 119 119
 119 119 119 119 119 168 168 168 168 168 76 76 76 76 76 76 128 128 86 86
 86 86 174 174 48 48 48 119 119 119 119 119 119 168 168 168 168 168 168 76
 76 76 76 76 76 128 128 128 86 86 31 31 31 48 48 48 48 119 119 119
 119 119 168 168 168 168 168 168 76 76 76 76 76 76 128 128 128 128 31 31
 31 31 48 48 48 48 48 119 119 119 119 168 168 168 168 168 168 76 76 76
 76 76 76 128 128 128 128 31 31 31 31 31 48 48 48 48 119 194 194 194
 155 155 155 155 155 155 76 76 76 76 76 76 128 128 128 128 31 31 31 31
 31 48 48 48 48 48 194 194 194 72 155 155 155 155 155 59 76 76 76 76
 186 186 186 186 186 158 158 31 31 31 48 48 48 48 194 194 194 194 72 72
 155 155 155 59 59 59 59 76 186 186 186 186 186 186 158 158 31 31 31 48
 48 48 48 194 194 194 194 72 72 155 155 59 59 59 59 59 59 173 173 173
 173 173 173 232 232 232 232 31 48 48 48 194 194 194 194 72 72 72 155 59
 59 59 59 59 59 59 173 173 173 173 173 173 232 232 232 232 232 145 145 48
 194 194 194 194 72 72 72 155 59 59 59 59 59 59 59 173 173 173 173 173
 226 226 232 232 145 145 145 145 145 194 194 63 63 63 63 63 203 167 167 59
 59 59 59 59 173 173 173 173 173 226 226 226 232 145 145 145 145 145 63 63
 63 63 63 63 63 203 167 167 167 167 167 195 195 195 195 36 173 226 226 226
 226 145 145 145 145 145 145 63 63 63 63 63 63 203 203 203 167 167 167 167
 195 195 195 195 36 36 36 226 226 226 145 145 145 145 145 63 63 63 50 50
 50 50 203 203 203 233 167 167 167 195 195 195 195 36 36 36 36 226 226 145
 145 145 145 145 50 50 50 50 50 50 50 203 203 203 203 167 167 195 195 195
 195 195 36 36 36 36 36 41 41 41 240 240 240 50 50 50 50 50 50 50
 203 203 203 203 203 167 195 195 195 195 195 36 36 36 36 41 41 41 41 240
 240 240 240 50 50 50 50 50 50 203 203 203 203 203 167 195 195 195 195 146
 146 146 146 41 41 41 41 41 240 240 240 240 240 50 22 22 22 50 203 203
 203 103 103 103 195 195 195 146 146 146 146 41 41 41 41 41 41 240 240 240
 240 240 227 22 22 22 103 103 103 103 103 103 103 103 195 146 146 146 146 146
 41 41 41 41 41 41 240 240 240 240 240 227 22 22 22 103 103 103 103 103
 103 103 103 237 237 237 146 146 146 41 41 41 41 41 181 240 240 240 240 240
 227 103 103 103 103 103 103 103 103 103 242 242 237 237 237 237 237 110 41 41
 41 41 41 181 240 240 240 240 240 240 103 103 103 103 103 103 103 103 103 242
 242 237 237 237 237 237 110 110 110 41 41 181 181 181 181 240 240 240 240 103
 103 103 103 103 103 103 103 103 242 242 237 237 237 237 237 110 110 110 89 181
 181 17 181 181 229 229 229 229 161 161 161 161 161 161 161 21 21 21 21 94
 94 237 237 237 110 110 110 89 17 17 17 17 17 58 58 58 58 161 161 161
 161 161 161 161 21 21 21 21 94 94 94 81 86 86 86 86 86 17 17 17
 17 17 17 58 58 58 119 119 161 161 161 161 161 161 21 21 21 94 94 81
 81 86 86 86 86 86 17 17 17 17 17 17 58 58 119 119 119 119 161 161
 161 161 161 21 21 21 21 81 81 86 86 86 86 86 86 86 17 17 17 17
 8 8 119 119 119 119 119 119 161 161 161 161 21 21 21 21 81 81 86 86
 86 86 86 86 174 174 174 174 8 8 8 119 119 119 119 119 119 168 168 168
 161 21 21 21 216 76 76 86 86 86 86 86 86 86 174 174 174 182 8 182
 119 119 119 119 119 119 168 168 168 168 168 76 76 76 76 76 128 128 128 86
 86 86 86 174 174 182 182 182 182 119 119 119 119 119 168 168 168 168 168 168
 76 76 76 76 76 128 128 128 128 128 128 31 31 182 182 182 182 182 119 119
 119 119 119 168 168 168 168 168 168 168 76 76 76 76 128 128 128 128 128 128
 31 31 31 48 48 48 48 48 119 119 119 119 168 168 168 168 168 168 76 76
 76 76 76 128 128 128 128 128 158 31 31 31 48 48 48 48 48 119 194 194
 194 168 168 168 168 168 168 76 76 76 76 76 128 128 128 128 128 158 158 158
 158 48 48 48 48 48 48 194 194 194 194 155 155 155 155 155 59 76 76 76
 186 186 186 186 186 186 158 158 158 158 48 48 48 48 48 194 194 194 194 194
 72 155 155 155 59 59 59 59 186 186 186 186 186 186 186 158 158 158 158 48
 48 48 48 48 194 194 194 194 194 72 155 155 59 59 140 140 140 173 173 173
 173 173 173 173 158 158 158 158 158 48 48 48 194 194 194 194 194 194 72 155
 59 59 140 140 140 140 173 173 173 173 173 173 173 232 158 232 232 187 187 187
 187 194 194 194 194 194 194 72 167 167 167 59 140 140 59 173 173 173 173 173
 173 226 226 232 232 145 145 145 187 187 194 194 63 63 63 63 63 167 167 167
 167 167 167 139 173 173 173 173 173 173 226 226 226 232 145 145 145 145 187 63
 63 63 63 63 63 63 167 167 167 167 167 167 195 195 195 195 36 36 173 226
 226 226 145 145 145 145 145 63 63 63 63 63 63 63 203 203 233 167 167 167
 167 195 195 195 195 36 36 36 226 226 226 145 145 145 145 145 63 63 63 50
 50 50 50 203 203 203 233 233 167 167 195 195 195 195 36 36 36 36 36 36
 41 145 145 145 240 50 50 50 50 50 50 50 203 203 203 233 233 233 195 195
 195 195 195 36 36 36 36 36 41 41 41 240 240 240 50 50 50 50 50 50
 50 203 203 203 203 233 233 195 195 195 195 195 36 36 36 36 41 41 41 41
 240 240 240 240 50 50 50 50 50 50 203 203 203 203 233 233 195 195 195 195
 146 146 146 146 41 41 41 41 41 240 240 240 240 240 50 50 50 50 50 203
 203 203 103 103 103 195 195 195 146 146 146 146 41 41 41 41 41 41 240 240
 240 240 240 240 50 50 50 103 103 103 103 103 103 103 242 195 146 146 146 146
 146 41 41 41 41 41 41 240 240 240 240 240 240 50 50 50 103 103 103 103
 103 103 103 242 237 237 237 237 146 146 41 41 41 41 41 41 240 240 240 240
 240 240 93 93 103 103 103 103 103 103 242 242 242 237 237 237 237 237 237 41
 41 41 41 41 41 240 240 240 240 240 240 93 93 103 103 103 103 103 103 242
 242 242 237 237 237 237 237 237 89 89 89 89 89 17 181 58 58 58 240 240
 93 93 103 103 103 103 103 103 242 242 242 237 237 237 237 237 237 89 89 89
 89 17 17 17 58 58 58 58 58 71 161 161 161 161 161 161 21 21 21 21
 237 237 237 237 237 237 89 89 89 17 17 17 17 58 58 58 58 58 161 161
 161 161 161 161 161 21 21 21 21 81 81 81 81 81 86 86 86 17 17 17
 17 17 17 58 58 58 58 119 119 161 161 161 161 161 21 21 21 21 81 81
 81 81 81 86 86 86 86 17 17 17 17 17 58 58 58 119 119 119 119 161
 161 161 161 21 21 21 21 81 81 81 81 86 86 86 86 86 174 174 17 17
 17 8 8 8 119 119 119 119 119 161 161 161 161 21 21 21 81 81 81 81
 86 86 86 86 86 174 174 174 174 8 8 8 119 119 119 119 119 119 161 168
 161 161 21 21 21 81 81 81 86 86 86 86 86 86 174 174 174 174 182 8
 182 119 119 119 119 119 119 168 168 168 168 168 21 76 76 76 76 128 128 128
 86 86 86 174 174 174 182 182 182 182 119 119 119 119 119 119 168 168 168 168
 168 76 76 76 76 76 128 128 128 128 86 86 174 174 182 182 182 182 182 182
 119 119 119 119 168 168 168 168 168 168 168 76 76 76 76 128 128 128 128 128
 128 158 182 182 182 182 182 182 182 119 119 119 119 168 168 168 168 168 168 76
 76 76 76 76 128 128 128 128 128 158 158 158 154 154 154 154 154 154 154 194
 194 194 168 168 168 168 168 168 213 213 76 76 76 128 128 128 128 128 158 158
 158 158 154 154 48 154 154 154 194 194 194 194 155 155 155 168 168 213 213 213
 213 186 186 186 186 186 186 158 158 158 158 154 154 48 48 154 194 194 194 194
 194 194 155 155 155 140 140 140 140 186 186 186 186 186 186 186 158 158 158 158
 154 154 154 48 154 194 194 194 194 194 194 194 155 140 140 140 140 140 140 173
 173 173 173 173 173 158 158 158 158 187 187 187 187 194 194 194 194 194 194 194
 194 140 140 140 140 140 140 140 173 173 173 173 173 173 158 158 158 158 187 187
 187 187 187 194 194 194 194 194 194 167 167 167 140 140 140 140 140 173 173 173
 173 173 173 158 158 12 12 12 187 187 187 187 194 63 63 63 63 63 167 167
 167 167 167 167 139 139 173 173 173 173 173 173 226 12 12 12 12 12 12 187
 187 63 63 63 63 63 63 167 167 167 167 167 167 195 195 195 195 36 173 173
 226 226 143 143 12 12 12 12 12 63 63 63 63 63 63 203 203 233 167 167
 167 167 195 195 195 195 36 36 36 36 226 143 143 143 12 12 12 63 63 63
 50 50 50 50 203 203 233 233 233 167 167 195 195 195 195 36 36 36 36 36
 143 143 143 12 12 12 230 50 50 50 50 50 50 203 203 233 233 233 233 167
 195 195 195 195 36 36 36 36 36 41 41 41 240 240 240 230 50 50 50 50
 50 50 203 203 203 233 233 233 167 195 195 195 195 36 36 36 36 41 41 41
 41 240 240 240 240 50 50 50 50 50 50 203 203 203 233 233 233 195 195 195
 195 146 146 146 146 41 41 41 41 41 240 240 240 240 240 50 50 50 50 50
 203 203 203 103 103 242 92 92 195 146 146 146 146 41 41 41 41 41 41 240
 240 240 240 240 50 50 50 50 103 103 103 103 103 103 242 242 92 237 146 146
 146 146 41 41 41 41 41 41 240 240 240 240 240 240 50 50 103 103 103 103
 103 103 103 242 242 237 237 237 237 237 146 41 41 41 41 41 41 240 240 240
 240 240 240 93 93 45 45 45 45 103 103 242 242 242 237 237 237 237 237 237
 89 89 89 89 89 89 240 240 240 240 240 240 93 93 45 45 45 45 103 242
 242 242 242 237 237 237 237 237 89 89 89 89 89 89 89 58 58 58 58 58
 58 93 93 45 45 45 45 45 242 242 242 242 242 237 237 237 237 237 89 89
 89 89 89 17 58 58 58 58 58 58 71 71 45 45 45 45 45 21 21 242
 242 81 81 237 237 81 81 89 89 89 89 17 17 17 58 58 58 58 58 71
 71 161 161 161 161 161 21 21 21 21 81 81 81 81 81 81 245 245 245 245
 17 17 17 58 58 58 58 58 71 71 161 161 161 161 161 21 21 21 21 81
 81 81 81 81 81 245 245 245 245 17 17 17 17 8 8 8 8 119 119 161
 161 161 161 161 21 21 21 21 81 81 81 81 81 86 86 245 245 174 174 174
 17 8 8 8 8 8 119 119 119 99 99 99 99 21 21 21 21 81 81 81
 81 81 86 86 86 209 174 174 174 174 8 8 8 8 119 119 119 119 119 99
 99 99 99 21 21 21 81 81 81 81 86 86 86 86 209 174 174 174 8 8
 8 8 8 119 119 119 119 119 34 34 34 168 168 21 21 76 76 76 128 128
 128 86 86 209 174 174 174 182 182 182 182 182 119 119 119 119 119 168 168 168
 168 168 168 213 76 76 76 128 128 128 128 128 209 174 174 182 182 182 182 182
 182 119 119 119 119 168 168 168 168 168 168 213 213 213 76 76 128 128 128 128
 128 128 158 174 182 182 182 182 182 182 119 119 119 119 168 168 168 168 168 168
 213 213 213 213 40 40 40 40 40 40 158 158 158 154 154 154 154 154 154 154
 194 194 194 168 168 168 168 168 168 213 213 213 213 40 40 40 40 40 40 158
 158 158 158 154 154 154 154 154 154 194 194 194 194 168 168 168 168 213 213 213
 213 213 40 40 40 40 40 40 158 158 158 158 154 154 154 154 154 154 194 194
 194 194 194 168 168 124 140 140 140 213 213 75 75 75 75 75 158 158 158 158
 158 154 154 154 154 154 194 194 194 194 194 194 194 32 32 140 140 140 140 9
 75 75 75 75 75 75 158 158 158 158 187 187 187 187 187 194 194 194 194 194
 194 32 32 32 140 140 140 140 9 75 75 75 75 75 75 158 158 12 12 12
 187 187 187 187 194 194 194 194 194 194 32 32 32 32 140 140 139 139 75 75
 75 75 75 75 158 12 12 12 12 187 187 187 187 187 63 63 63 131 131 167
 167 167 167 167 139 139 139 139 75 75 75 75 75 12 12 12 12 12 12 12
 187 187 187 63 63 63 131 131 167 167 167 167 167 167 139 139 139 195 75 75
 75 75 143 143 143 12 12 12 12 12 38 38 38 63 63 131 203 233 167 167
 167 167 167 139 195 195 195 36 36 36 36 143 143 143 143 12 12 12 38 38
 38 38 50 50 131 203 203 233 233 167 167 167 195 195 195 195 36 36 36 36
 132 143 143 143 12 12 12 230 38 38 50 50 50 50 203 203 233 233 233 167
 167 195 195 195 195 36 36 36 36 36 132 143 30 30 30 30 230 230 38 50
 50 50 50 203 203 233 233 233 167 167 195 195 195 195 36 36 36 36 41 41
 41 30 30 30 30 30 230 50 50 50 50 50 203 203 203 233 233 92 92 92
 92 92 146 146 146 146 41 41 41 41 30 30 30 30 30 30 50 50 50 50
 50 203 203 103 103 233 92 92 92 92 92 146 146 146 41 41 41 41 41 30
 30 30 30 30 240 50 50 50 50 45 45 103 103 103 242 242 92 92 92 92
 146 146 146 41 41 41 41 41 30 30 240 240 240 240 240 93 93 45 45 45
 103 103 103 242 242 242 237 237 237 237 237 237 41 41 41 41 41 240 240 240
 240 240 240 240 93 93 45 45 45 45 45 45 242 242 242 237 237 237 237 237
 89 89 89 89 89 89 89 30 30 30 30 30 93 93 93 93 45 45 45 45
 45 242 242 242 237 237 237 237 237 89 89 89 89 89 89 89 58 58 58 58
 58 93 93 93 45 45 45 45 45 45 242 242 242 237 237 237 237 237 89 89
 89 89 89 89 17 58 58 58 58 58 58 71 71 45 45 45 45 45 45 242
 242 242 81 81 81 81 81 81 89 89 89 89 89 17 58 58 58 58 58 58
 71 71 71 45 45 45 45 21 21 21 81 81 81 81 81 81 81 245 245 245
 245 17 17 17 58 58 58 58 58 71 71 71 99 99 99 99 21 21 21 81
 81 81 81 81 81 81 245 245 245 245 245 17 17 8 8 8 8 8 71 71
 71 99 99 99 99 99 21 21 81 81 81 81 81 81 81 245 245 245 245 174
 174 8 8 8 8 8 8 71 71 119 99 99 99 99 99 21 21 81 81 81
 81 81 81 81 209 209 209 209 174 174 8 8 8 8 8 8 119 119 119 99
 99 99 99 99 99 21 81 81 81 81 81 81 86 209 209 209 209 174 174 8
 8 8 8 8 8 119 119 119 34 34 34 34 34 34 34 213 81 81 81 81
 81 128 209 209 209 209 174 174 8 8 8 8 8 119 119 119 119 34 34 34
 34 34 34 213 213 213 105 76 128 128 128 128 209 209 209 174 182 182 182 182
 182 182 119 119 119 119 34 34 34 34 34 213 213 213 213 105 40 40 40 40
 40 40 135 135 135 135 182 182 182 182 182 182 119 119 119 168 168 168 168 168
 213 213 213 213 105 40 40 40 40 40 40 135 135 135 135 154 154 154 154 154
 154 194 194 194 168 168 168 168 5 213 213 213 213 105 40 40 40 40 40 40
 158 135 135 135 154 154 154 154 154 154 194 194 194 194 5 5 5 124 213 213
 213 213 213 40 40 40 40 40 40 158 158 158 37 154 154 154 154 154 154 194
 194 194 194 5 5 124 124 124 213 213 213 213 9 40 40 40 40 158 158 158
 37 37 37 154 154 154 154 154 194 194 194 194 194 32 32 32 140 140 140 140
 9 9 75 75 75 75 75 158 37 37 37 37 187 187 187 187 187 194 194 194
 194 32 32 32 32 32 140 140 139 9 9 75 75 75 75 75 37 37 37 12
 12 187 187 187 187 187 194 194 131 131 131 32 32 32 32 139 139 139 139 9
 75 75 75 75 75 37 12 12 12 12 12 12 187 187 187 38 131 131 131 131
 32 32 32 32 139 139 139 139 139 75 75 75 75 75 12 12 12 12 12 12
 12 12 187 38 38 131 131 131 131 32 32 32 167 167 139 139 139 139 75 75
 75 75 75 143 143 143 143 12 12 12 12 38 38 38 38 131 131 131 131 167
 167 167 167 167 139 139 139 195 36 36 36 132 132 143 143 143 143 12 12 12
 38 38 38 38 131 131 131 203 233 167 167 167 167 195 195 195 195 36 36 36
 132 132 143 143 143 143 143 230 230 38 38 38 50 131 131 131 203 233 233 233
 167 167 195 195 195 195 36 36 36 132 132 132 143 30 30 30 30 230 230 38
 50 50 50 50 203 203 233 233 233 167 92 92 92 92 92 36 36 36 132 13
 13 30 30 30 30 30 230 230 230 50 50 50 50 203 203 233 233 233 92 92
 92 92 92 92 92 146 146 13 13 13 13 30 30 30 30 30 30 230 50 50
 50 45 45 45 45 233 233 92 92 92 92 92 92 92 146 13 13 13 13 13
 30 30 30 30 30 30 30 93 93 45 45 45 45 45 45 242 92 92 92 92
 92 92 92 146 41 13 13 13 13 30 30 30 30 30 30 30 93 93 45 45
 45 45 45 45 242 242 242 92 92 237 237 237 89 89 89 89 89 89 30 30
 30 30 30 30 30 93 93 93 45 45 45 45 45 242 242 242 237 237 237 237
 237 89 89 89 89 89 89 89 30 30 30 30 30 93 93 93 93 45 45 45
 45 45 242 242 242 237 237 237 237 237 89 89 89 89 89 89 89 58 58 58
 58 58 93 93 93 93 45 45 45 45 45 242 242 242 81 237 237 237 81 89
 89 89 89 89 89 89 58 58 58 58 58 93 71 71 71 45 45 45 45 45
 242 242 81 81 81 81 81 81 81 89 89 89 89 89 89 58 58 58 58 58
 71 71 71 71 71 45 45 45 45 21 21 81 81 81 81 81 81 81 245 245
 245 245 245 17 58 58 58 58 58 71 71 71 71 71 99 99 99 99 21 21
 81 81 81 81 81 81 81 245 245 245 245 245 8 8 8 8 8 8 71 71
 71 71 99 99 99 99 99 21 21 81 81 81 81 81 81 81 245 245 245 245
 245 8 8 8 8 8 8 71 71 71 71 99 99 99 99 99 99 81 81 81
 81 81 81 81 81 209 209 209 209 209 8 8 8 8 8 8 8 71 71 71
 99 99 99 99 99 99 81 81 81 81 81 81 81 81 209 209 209 209 209 8
 8 8 8 8 8 8 119 119 34 34 34 34 34 34 34 34 81 81 81 81
 120 120 120 209 209 209 209 209 8 8 8 8 8 8 8 119 119 34 34 34
 34 34 34 34 213 213 213 213 120 120 120 120 120 209 209 135 135 135 182 204
 204 204 182 119 119 119 34 34 34 34 34 34 213 213 213 213 213 40 120 40
 40 40 40 135 135 135 135 135 204 204 204 182 182 119 119 5 5 5 5 5
 5 5 213 213 213 105 40 40 40 40 40 40 135 135 135 135 135 204 204 204
 154 154 194 113 5 5 5 5 5 5 124 105 105 105 105 40 40 40 40 40
 40 135 135 135 135 135 154 154 154 154 154 194 194 5 5 5 5 5 124 124
 105 105 213 213 40 40 40 40 40 40 135 135 37 37 37 154 154 154 154 154
 194 194 194 5 5 5 124 124 124 124 213 213 213 9 40 40 40 40 37 37
 37 37 37 37 37 154 154 154 154 194 194 194 194 5 124 124 133 133 133 140
 9 9 9 9 75 75 75 37 37 37 37 37 37 37 187 187 187 187 194 194
 194 133 133 133 133 133 133 133 139 139 9 9 9 75 75 75 75 37 37 37
 12 12 12 12 187 187 187 38 131 131 131 32 32 32 32 32 139 139 139 139
 9 9 75 75 75 75 37 12 12 12 12 12 12 12 187 38 38 131 131 131
 131 32 32 32 32 139 139 139 139 139 9 75 75 75 12 12 12 12 12 12
 12 12 12 64 38 38 131 131 131 131 32 32 32 32 139 139 139 139 139 9
 75 75 75 132 143 143 143 143 143 12 12 64 64 38 38 38 131 131 131 131
 32 32 167 167 139 139 139 139 139 36 36 132 132 132 143 143 143 143 143 12
 64 38 38 38 38 131 131 131 131 233 167 167 167 167 139 195 195 195 36 132
 132 132 132 132 143 143 143 143 230 230 230 38 38 38 131 131 131 131 233 233
 233 167 167 92 92 92 92 36 36 132 132 132 132 143 143 30 30 30 230 230
 230 230 38 131 131 131 6 233 233 233 167 92 92 92 92 92 92 92 132 132
 132 132 132 30 30 30 30 230 230 230 230 50 50 131 131 6 233 233 233 92
 92 92 92 92 92 92 92 13 13 13 13 13 30 30 30 30 30 30 230 230
 93 93 45 45 45 45 45 54 92 92 92 92 92 92 92 92 13 13 13 13
 13 30 30 30 30 30 30 30 93 93 93 45 45 45 45 45 54 92 92 92
 92 92 92 92 92 13 13 13 13 13 30 30 30 30 30 30 30 93 93 93
 45 45 45 45 45 242 242 92 92 92 92 92 92 89 89 89 89 89 13 30
 30 30 30 30 30 30 93 93 93 93 45 45 45 45 54 54 54 54 237 237
 237 237 89 89 89 89 89 89 89 30 30 30 30 30 93 93 93 93 93 45
 45 45 45 54 54 54 54 237 237 237 237 89 89 89 89 89 89 89 89 58
 58 58 93 93 93 93 93 93 45 45 45 45 54 54 54 81 81 81 81 81
 89 89 89 89 89 89 89 97 97 58 58 58 93 71 71 71 71 45 45 45
 45 85 85 81 81 81 81 81 81 81 89 89 89 89 89 97 97 97 97 58
 58 71 71 71 71 71 45 45 45 85 85 85 81 81 81 81 81 81 81 245
 245 245 245 245 97 97 97 97 58 71 71 71 71 71 71 99 99 99 99 85
 85 81 81 81 81 81 81 81 245 245 245 245 245 97 97 8 8 8 8 71
 71 71 71 71 99 99 99 99 85 85 81 81 81 81 81 81 81 245 209 245
 245 245 8 8 8 8 8 8 71 71 71 71 99 99 99 99 99 99 112 81
 81 81 81 81 81 81 209 209 209 209 209 8 8 8 8 8 8 71 71 71
 71 99 99 99 99 99 99 201 201 81 81 81 81 81 81 209 209 209 209 209
 8 8 8 8 8 8 8 71 71 34 34 34 34 34 34 34 201 201 201 81
 120 120 120 120 209 209 209 209 209 8 8 8 8 8 8 8 71 71 34 34
 34 34 34 34 34 213 213 213 120 120 120 120 120 120 209 135 135 135 135 135
 204 204 204 8 8 119 5 5 5 5 5 5 5 5 213 213 213 213 120 120
 120 120 120 135 135 135 135 135 135 204 204 204 204 204 113 113 5 5 5 5
 5 5 5 213 213 213 213 40 40 40 40 40 135 135 135 135 135 135 204 204
 204 154 154 113 113 5 5 5 5 5 5 124 105 105 213 213 40 40 40 40
 40 135 135 135 135 135 135 135 154 154 154 154 113 113 5 5 5 5 5 124
 124 124 105 213 213 40 40 40 40 40 135 135 37 37 37 135 135 154 154 154
 154 113 113 113 5 5 5 124 124 124 124 105 213 213 9 40 40 40 40 37
 37 37 37 37 37 37 154 154 154 113 113 113 113 223 5 124 124 133 133 133
 105 9 9 9 9 9 75 37 37 37 37 37 37 37 37 187 187 88 113 113
 113 223 223 133 133 133 133 133 133 139 139 9 9 9 9 75 75 37 37 37
 37 37 12 12 12 12 187 64 64 223 223 131 133 133 133 133 133 139 139 139
 139 9 9 9 75 75 37 37 37 12 12 12 12 12 12 64 64 64 131 131
 131 131 32 32 32 32 139 139 139 139 139 9 9 75 75 143 143 143 143 143
 143 12 12 64 64 64 64 131 131 131 131 32 32 32 32 139 139 139 139 139
 139 139 111 132 132 143 143 143 143 143 143 12 64 64 64 38 38 131 131 131
 131 32 32 32 139 139 139 139 139 139 132 132 132 132 132 132 143 143 143 143
 143 64 64 38 38 38 131 131 131 6 6 6 167 167 139 139 139 92 92 132
 132 132 132 132 132 143 143 143 143 64 172 230 38 38 38 131 131 131 6 6
 6 6 167 92 92 92 92 92 142 132 132 132 132 132 132 143 30 30 30 230
 230 230 230 38 131 131 6 6 6 6 6 92 92 92 92 92 92 142 132 132
 132 132 132 132 30 30 30 30 30 230 230 230 38 6 6 6 6 6 6 92
 92 92 92 92 92 92 142 142 132 132 132 132 132 30 30 30 30 30 30 30
 93 93 93 45 45 45 45 54 54 54 92 92 92 92 92 142 142 13 13 13
 13 13 30 30 30 30 30 30 30 93 93 93 45 45 45 45 54 54 54 92
 92 92 92 92 142 142 89 13 13 13 13 30 30 30 30 30 30 30 93 93
 93 45 45 45 45 45 54 54 54 92 92 92 142 142 89 89 89 89 89 89
 30 30 30 30 30 30 30 93 93 93 93 45 45 45 54 54 54 54 54 142
 142 142 144 4 4 89 89 89 89 89 30 30 30 30 93 93 93 93 93 93
 45 45 45 54 54 54 54 54 54 142 142 144 4 4 89 89 89 89 89 97
 30 30 30 93 93 93 93 93 93 45 45 45 45 54 54 54 54 81 81 81
 81 89 89 89 89 89 89 97 97 97 97 97 93 93 71 71 71 71 45 45
 45 85 85 85 85 81 81 81 81 81 81 89 89 89 89 89 97 97 97 97
 97 71 71 71 71 71 71 71 45 85 85 85 85 85 81 81 81 81 81 81
 245 245 245 245 245 97 97 97 97 97 71 71 71 71 71 71 71 99 99 85
 85 85 85 81 81 81 81 81 81 245 245 245 245 245 97 97 97 97 97 71
 71 71 71 71 71 99 99 99 85 85 85 85 81 81 81 81 81 81 245 209
 245 245 245 160 160 8 8 8 71 71 71 71 71 71 99 99 99 99 85 112
 112 81 81 81 81 81 81 209 209 209 209 209 160 160 8 8 8 8 71 71
 71 71 71 99 99 99 99 85 201 201 152 81 81 81 81 120 209 209 209 209
 160 160 160 8 8 8 8 71 71 71 71 34 34 34 34 34 201 201 201 201
 152 120 120 120 120 120 209 209 209 135 160 8 8 8 8 8 8 71 71 34
 34 34 34 34 34 201 201 201 201 152 120 120 120 120 120 120 135 135 135 135
 135 204 204 204 8 8 113 5 5 5 5 5 5 5 5 201 201 213 213 120
 120 120 120 120 135 135 135 135 135 135 204 204 204 204 204 113 113 5 5 5
 5 5 5 5 213 213 213 213 120 120 120 120 120 135 135 135 135 135 135 135
 204 204 154 113 113 113 113 5 5 5 5 124 124 124 213 213 213 47 40 40
 40 40 135 135 135 135 135 135 135 135 154 113 113 113 113 113 5 5 5 5
 124 124 124 213 213 213 47 40 40 40 40 135 135 135 135 135 135 135 135 154
 113 113 113 113 113 5 5 5 124 124 124 124 106 106 106 9 40 40 40 40
 37 37 37 37 37 135 135 135 88 88 113 113 113 113 223 223 124 124 133 133
 133 106 106 9 9 9 9 75 37 37 37 37 37 37 37 37 88 88 88 113
 113 113 223 223 223 133 133 133 133 133 139 139 9 9 9 9 75 37 37 37
 37 37 37 12 12 12 88 88 88 68 223 223 223 223 133 133 133 133 133 139
 139 139 9 9 9 75 75 37 37 37 12 12 12 12 12 12 64 64 64 68
 223 131 91 91 133 133 133 139 139 139 139 139 139 139 111 132 132 143 143 143
 143 143 143 143 64 64 64 64 64 131 131 131 91 32 32 32 139 139 139 139
 139 139 111 111 132 132 132 143 143 143 143 143 143 64 64 64 64 38 131 131
 131 6 6 6 32 139 139 139 139 139 139 132 132 132 132 132 132 143 143 143
 143 64 64 64 64 38 38 131 131 6 6 6 6 6 139 139 139 139 142 142
 132 132 132 132 132 132 132 143 143 143 64 64 64 64 172 38 6 6 6 6
 6 6 6 6 92 92 92 142 142 142 132 132 132 132 132 132 143 30 30 30
 172 172 172 172 172 6 6 6 6 6 6 6 6 92 92 92 142 142 142 142
 132 132 132 132 132 30 30 30 30 172 172 172 172 172 6 6 6 6 6 6
 6 54 92 92 92 142 142 142 142 132 132 132 132 132 30 30 30 30 30 30
 172 172 93 93 6 6 6 6 54 54 54 92 92 92 142 142 142 142 142 132
 13 13 13 30 30 30 30 30 30 30 93 93 93 93 45 45 45 54 54 54
 54 92 142 142 142 142 142 142 89 13 13 13 30 30 30 30 30 30 30 93
 93 93 93 45 45 45 54 54 54 54 54 142 142 142 142 142 89 89 89 89
 89 30 30 30 30 30 30 93 93 93 93 93 45 45 45 54 54 54 54 54
 142 142 142 144 4 4 4 4 27 162 162 162 30 30 30 93 93 93 93 93
 93 45 45 45 54 54 54 54 54 142 142 144 144 4 4 4 27 27 162 162
 162 97 97 30 93 93 93 93 93 93 45 45 45 54 54 54 54 54 81 81
 144 144 4 4 4 27 27 162 162 97 97 97 97 93 93 71 71 71 71 71
 45 85 85 85 85 85 85 81 81 81 81 144 4 89 27 162 162 97 97 97
 97 97 97 71 71 71 71 71 71 71 85 85 85 85 85 85 81 81 81 81
 81 245 245 245 245 162 97 97 97 97 97 71 71 71 71 71 71 71 99 85
 85 85 85 85 85 81 81 81 81 81 245 245 245 245 160 97 97 97 97 97
 51 71 71 71 71 71 71 99 85 85 85 85 85 85 81 81 81 81 81 245
 209 245 245 160 160 160 160 160 8 71 71 71 71 71 71 99 99 99 85 112
 112 112 152 152 81 81 81 214 209 209 209 209 160 160 160 160 160 160 8 71
 71 71 71 71 99 99 99 130 112 112 201 152 152 152 81 120 120 209 209 209
 209 160 160 160 160 160 160 8 71 71 71 71 34 34 34 130 130 201 201 201
 152 152 152 120 120 120 120 209 209 135 160 160 160 160 160 8 8 71 71 71
 5 5 34 34 34 130 201 201 201 201 152 152 120 120 120 120 120 135 135 135
 135 135 160 160 204 8 71 113 113 5 5 5 5 5 5 201 201 201 201 152
 120 120 120 120 120 135 135 135 135 135 135 135 204 204 204 113 113 113 113 5
 5 5 5 5 5 201 201 47 47 47 120 120 120 120 135 135 135 135 135 135
 135 135 204 113 113 113 113 113 5 5 5 5 124 124 124 106 47 47 47 47
 120 120 120 135 135 135 135 135 135 135 135 135 113 113 113 113 113 113 5 5
 124 124 124 124 106 106 47 47 47 47 40 40 135 135 135 135 135 135 135 135
 88 113 113 113 113 113 113 5 5 124 124 124 124 106 106 106 47 47 40 40
 40 37 37 37 135 135 135 135 88 88 88 113 113 113 113 223 223 124 124 133
 133 133 106 106 106 106 9 9 75 37 37 37 37 37 135 135 88 88 88 88
 113 113 113 223 223 223 133 133 133 133 133 106 106 106 9 9 9 75 37 37
 37 37 37 37 12 88 88 88 88 88 68 68 223 223 223 91 133 133 133 133
 139 139 139 9 9 9 111 189 189 189 189 12 12 143 143 88 88 88 88 68
 68 223 223 91 91 91 133 133 133 139 139 139 139 139 111 111 111 111 189 189
 143 143 143 143 88 88 88 68 68 68 223 131 91 91 91 91 133 139 139 139
 139 139 111 111 111 111 111 111 143 143 143 143 143 143 64 64 64 64 68 6
 6 6 6 6 6 6 139 139 139 139 142 111 111 111 111 111 132 132 143 143
 143 143 64 64 64 64 64 64 6 6 6 6 6 6 6 6 139 139 142 142
 142 111 111 111 132 132 132 132 143 143 143 64 64 64 64 172 172 6 6 6
 6 6 6 6 6 117 142 142 142 142 142 111 132 132 132 132 132 30 30 30
 30 172 172 172 172 172 6 6 6 6 6 6 6 117 142 142 142 142 142 142
 142 39 39 132 132 132 30 30 30 30 172 172 172 172 6 6 6 6 6 6
 6 6 54 142 142 142 142 142 142 142 39 39 132 132 132 30 30 30 30 30
 30 172 93 93 6 6 6 6 6 54 54 54 54 142 142 142 142 142 142 142
 39 132 132 30 30 30 30 30 30 30 30 93 93 93 93 6 6 54 54 54
 54 54 142 142 142 142 142 142 142 4 4 13 30 30 30 30 30 30 30 30
 93 93 93 93 45 45 45 54 54 54 54 54 142 142 142 142 142 4 4 4
 89 162 30 30 30 30 30 30 93 93 93 93 83 83 83 83 54 54 54 54
 54 142 142 144 144 4 4 4 4 27 162 162 162 235 235 235 93 93 93 93
 93 83 83 83 83 54 54 54 54 54 142 144 144 144 144 4 4 27 27 162
 162 162 235 235 235 93 93 93 93 93 83 83 83 83 54 54 54 54 54 144
 144 144 144 144 4 4 27 27 162 162 162 97 97 97 93 93 71 71 71 71
 83 83 83 85 85 85 85 85 85 144 144 144 144 144 4 27 162 162 162 97
 97 97 97 51 51 71 71 71 71 71 83 85 85 85 85 85 85 208 208 214
 214 214 214 210 27 162 162 97 97 97 97 51 51 51 71 71 71 71 71 85
 85 85 85 85 85 85 208 208 214 214 214 214 210 210 210 160 160 160 97 97
 51 51 51 71 71 71 71 71 85 85 85 85 112 85 85 208 208 214 214 214
 210 210 210 210 160 160 160 160 160 51 51 51 71 71 71 71 14 130 130 130
 112 112 112 152 208 208 214 214 214 210 210 210 210 160 160 160 160 160 160 51
 51 71 71 71 14 130 130 130 130 112 112 201 152 152 152 214 214 214 210 210
 210 210 160 160 160 160 160 160 51 51 71 71 14 14 130 130 130 130 130 201
 201 152 152 152 152 120 120 120 210 210 210 160 160 160 160 160 160 51 51 113
 113 14 5 130 130 130 130 130 201 201 201 152 152 120 120 120 120 120 135 135
 160 160 160 160 160 160 67 113 113 113 113 5 5 5 130 130 201 201 201 201
 152 47 120 120 120 120 120 135 135 135 135 82 82 82 67 67 113 113 113 113
 5 5 5 5 102 102 201 201 47 47 47 47 120 120 120 135 135 135 135 135
 135 135 135 67 67 113 113 113 113 113 5 5 5 102 102 106 106 106 47 47
 47 47 120 120 135 135 135 135 135 18 18 18 67 113 113 113 113 113 113 5
 5 124 124 124 106 106 106 106 47 47 47 47 40 135 135 135 135 135 18 18
 18 88 113 113 113 113 113 113 113 124 124 124 124 106 106 106 106 106 47 47
 47 115 115 135 135 135 18 18 18 88 88 88 113 113 113 113 223 223 223 133
 133 133 106 106 106 106 106 78 78 78 115 37 37 37 37 18 18 88 88 88
 88 113 113 113 223 223 223 223 133 133 133 133 106 106 106 78 78 78 78 189
 189 189 189 189 18 18 88 88 88 88 88 68 68 223 223 223 91 91 133 133
 133 106 106 78 78 78 78 189 189 189 189 189 189 12 143 88 88 88 88 88
 68 68 223 223 91 91 91 91 133 133 139 139 78 78 78 111 111 111 189 189
 189 159 234 234 88 88 88 88 68 68 68 66 66 91 91 91 91 91 139 139
 139 139 77 111 111 111 111 111 189 159 159 234 234 234 88 88 68 68 68 66
 66 66 6 6 6 6 6 6 139 139 77 77 111 111 111 111 111 39 159 159
 234 234 234 234 64 64 68 66 66 66 6 6 6 6 6 6 6 117 117 117
 142 90 111 111 111 39 39 39 159 234 234 234 234 64 64 64 172 66 6 6
 6 6 6 6 6 117 117 117 117 142 90 90 90 39 39 39 39 39 234 234