# vtk DataFile Version 2.0
Data set from ImportExport Version 6.5.171.b0b162591
ASCII

DATASET RECTILINEAR_GRID
DIMENSIONS 30 30 30
X_COORDINATES 30 float
-1.250000 1.250000 3.750000 6.250000 8.750000 11.250000 13.750000 16.250000 18.750000 21.250000 23.750000 26.250000 28.750000 31.250000 33.750000 36.250000 38.750000 41.250000 43.750000 46.250000 48.750000 
51.250000 53.750000 56.250000 58.750000 61.250000 63.750000 66.250000 68.750000 71.250000 
Y_COORDINATES 30 float
-1.250000 1.250000 3.750000 6.250000 8.750000 11.250000 13.750000 16.250000 18.750000 21.250000 23.750000 26.250000 28.750000 31.250000 33.750000 36.250000 38.750000 41.250000 43.750000 46.250000 48.750000 
51.250000 53.750000 56.250000 58.750000 61.250000 63.750000 66.250000 68.750000 71.250000 
Z_COORDINATES 30 float
-1.250000 1.250000 3.750000 6.250000 8.750000 11.250000 13.750000 16.250000 18.750000 21.250000 23.750000 26.250000 28.750000 31.250000 33.750000 36.250000 38.750000 41.250000 43.750000 46.250000 48.750000 
51.250000 53.750000 56.250000 58.750000 61.250000 63.750000 66.250000 68.750000 71.250000 
CELL_DATA 24389
SCALARS FeatureIds int 1
LOOKUP_TABLE default
 155 155 155 155 129 129 129 129 186 186 186 186 62 62 62 62 62 62 19 19
 19 19 19 19 19 155 155 155 155 155 155 184 184 101 101 129 129 186 186 186
 186 62 62 62 62 62 62 19 19 19 19 19 19 19 155 155 155 155 155 184
 184 184 101 101 101 101 186 186 186 62 62 62 62 62 62 62 19 19 19 164
 164 164 164 155 155 155 155 184 184 184 184 101 101 101 101 172 172 172 62 62
 62 62 62 62 131 164 164 164 164 164 164 157 157 157 155 155 184 184 184 184
 101 101 101 172 172 172 172 172 62 62 62 131 131 131 131 164 164 164 164 164
 157 157 157 157 155 184 184 184 184 15 101 172 172 172 172 172 172 172 131 131
 131 131 131 131 164 164 164 164 164 157 157 157 157 157 68 184 68 68 15 172
 172 172 172 172 172 172 240 240 131 131 131 131 131 193 164 164 164 157 157 157
 157 157 157 68 68 68 68 12 12 12 172 172 172 172 240 240 240 131 131 131
 131 131 131 40 164 164 157 157 157 157 157 68 68 68 68 68 12 12 12 12
 12 12 240 240 240 240 131 131 131 131 131 40 40 40 145 145 157 22 22 68
 68 68 68 68 68 12 12 12 12 12 12 12 240 240 240 131 131 131 131 40
 40 40 40 67 67 67 22 22 22 68 68 68 68 1 12 12 12 12 12 12
 12 6 6 6 6 131 131 131 40 40 40 67 67 67 67 22 22 22 22 68
 68 1 1 1 12 12 12 12 12 12 6 6 6 6 18 18 18 18 18 40
 67 67 67 67 67 22 22 22 68 1 1 1 1 12 12 12 12 12 12 6
 6 6 6 18 18 18 18 18 18 67 67 67 67 67 22 22 22 1 1 1
 1 1 12 12 12 12 12 12 6 6 71 71 18 18 18 18 18 18 67 67
 67 67 67 22 22 22 125 125 125 125 125 125 12 12 12 12 12 71 71 71
 71 18 18 18 18 18 18 67 67 67 67 67 134 134 134 125 125 125 125 125
 125 125 12 12 12 140 140 140 71 18 18 18 18 18 18 18 67 67 134 134
 134 134 134 134 125 125 125 125 125 125 119 119 119 140 140 140 140 140 18 18
 18 18 18 18 18 134 134 134 134 134 134 134 134 109 125 125 125 125 119 119
 119 119 140 140 140 140 140 178 44 44 18 44 44 44 134 134 134 134 134 134
 134 109 109 109 119 119 119 119 119 119 119 119 140 140 140 178 178 178 44 44
 44 44 44 134 134 134 134 134 134 109 109 109 109 119 119 119 119 119 119 119
 119 140 140 178 178 178 178 178 44 195 195 30 30 134 134 134 134 109 109 109
 109 109 119 119 119 119 119 119 119 119 138 138 178 178 178 178 178 195 195 195
 30 30 30 134 134 134 109 109 109 109 109 119 119 119 119 119 119 183 183 183
 138 178 178 178 178 195 195 195 195 30 30 30 30 134 134 109 109 109 109 81
 81 81 119 119 166 166 183 183 183 183 178 178 178 178 195 195 195 195 30 30
 30 30 30 30 109 109 109 81 81 81 81 81 81 166 166 183 183 183 209 171
 34 34 34 195 195 195 30 30 30 30 30 91 91 91 109 109 81 81 81 81
 81 81 176 176 183 183 183 209 171 171 221 121 121 121 121 30 30 30 30 91
 91 91 91 91 109 81 81 81 81 81 81 176 176 176 176 176 171 171 171 171
 128 121 121 121 30 30 30 91 91 91 91 91 91 155 155 81 81 81 81 81
 176 47 47 47 47 171 171 171 142 142 142 121 121 30 30 30 91 91 91 91
 155 155 155 155 155 81 81 81 47 47 47 47 186 186 171 171 171 142 142 142
 142 121 19 19 30 91 91 91 91 155 155 155 155 155 155 81 81 47 47 47
 47 186 186 186 171 62 142 142 142 142 142 19 19 19 19 91 91 155 155 155
 155 155 155 155 155 101 47 47 47 186 186 186 186 62 62 62 62 142 142 19
 19 19 19 19 19 19 155 155 155 155 155 184 184 184 101 101 101 101 186 186
 186 62 62 62 62 62 142 142 19 19 19 164 164 164 164 155 155 155 155 184
 184 184 184 101 101 101 101 186 186 186 62 62 62 62 62 62 210 210 164 164
 164 164 164 164 155 155 155 155 184 184 184 184 101 101 101 101 172 172 172 62
 62 62 62 62 62 164 164 164 164 164 164 164 164 157 157 155 184 184 184 184
 184 101 101 101 101 172 172 172 172 62 62 62 131 131 131 210 164 164 164 164
 164 164 157 157 157 184 184 184 184 184 15 101 101 172 172 172 172 172 172 131
 131 131 131 131 193 193 164 164 164 164 164 157 157 157 184 184 184 184 184 15
 15 172 172 172 172 172 172 240 131 131 131 131 131 193 193 193 164 164 164 157
 157 157 157 184 68 68 68 68 15 12 12 172 172 172 172 240 240 131 131 131
 131 131 131 193 193 145 145 164 157 157 157 22 68 68 68 68 68 12 12 12
 12 12 12 240 240 240 131 131 131 131 131 131 193 145 145 145 145 145 67 22
 22 68 68 68 68 68 12 12 12 12 12 12 12 240 6 6 131 131 131 131
 131 145 145 145 145 145 145 67 22 22 22 68 68 1 1 12 12 12 12 12
 12 12 6 6 6 6 131 131 9 9 145 145 145 145 67 67 67 22 22 22
 22 1 1 1 1 12 12 12 12 12 12 6 6 6 6 18 18 18 18 18
 145 67 67 67 67 67 22 22 22 22 1 1 1 1 12 12 12 12 12 12
 6 6 6 6 18 18 18 18 18 18 67 67 67 67 67 22 22 22 1 1
 1 1 1 12 12 12 12 12 12 71 71 71 71 18 18 18 18 18 18 67
 67 67 67 67 22 22 22 125 125 125 125 125 125 12 12 12 12 12 71 71
 71 71 18 18 18 18 18 18 67 67 67 67 67 134 134 22 125 125 125 125
 125 125 125 12 12 12 12 71 71 71 71 18 18 18 18 18 18 134 134 134
 134 134 134 134 134 125 125 125 125 125 125 119 119 119 140 140 140 140 71 71
 44 44 44 44 44 44 134 134 134 134 134 134 134 134 109 125 125 125 119 119
 119 119 119 138 138 138 138 138 44 44 44 44 44 44 44 134 134 134 134 134
 134 134 134 109 119 119 119 119 119 119 119 119 138 138 138 138 138 178 44 44
 44 44 44 44 134 134 134 134 134 134 134 109 109 119 119 119 119 119 119 119
 119 138 138 138 138 178 178 44 44 44 44 195 30 30 134 134 134 134 134 134
 109 109 119 119 119 119 119 119 119 119 138 138 138 138 178 178 178 195 195 195
 195 30 30 30 134 134 134 134 109 109 109 119 119 119 119 119 119 119 183 183
 138 138 138 178 178 34 195 195 195 195 30 30 30 30 30 134 109 109 109 81
 81 81 81 119 119 183 183 183 183 183 209 209 34 34 34 195 195 195 195 30
 30 30 30 30 30 109 109 109 81 81 81 81 81 81 183 183 183 183 183 209
 209 34 34 34 34 195 195 30 30 30 30 30 91 91 91 109 109 81 81 81
 81 81 81 183 176 183 183 209 209 209 209 221 221 221 221 204 30 30 30 30
 91 91 91 91 91 42 81 81 81 81 81 81 176 176 176 176 176 209 209 209
 221 221 221 221 204 204 30 30 91 91 91 91 91 91 155 81 81 81 81 81
 81 47 47 47 47 47 171 209 142 142 142 142 142 204 204 204 91 91 91 91
 91 91 155 155 155 81 81 81 81 47 47 47 47 47 186 186 171 142 142 142
 142 142 204 204 204 91 91 91 91 91 155 155 155 155 81 81 81 81 47 47
 47 47 186 186 186 62 62 142 142 142 142 142 19 19 19 19 91 91 155 155
 155 155 155 155 155 101 101 101 47 47 186 186 116 62 62 62 62 62 142 142
 210 210 19 19 164 164 159 159 159 159 155 155 184 184 101 101 101 101 101 101
 116 116 62 62 62 62 62 62 210 210 210 164 164 164 164 159 159 159 159 155
 184 184 184 184 101 101 101 101 101 186 116 62 62 62 62 62 62 210 210 210
 164 164 164 164 159 159 159 159 155 184 184 184 184 101 101 101 101 101 172 172
 62 62 62 62 62 62 210 210 210 164 164 164 164 164 159 159 159 184 184 184
 184 208 101 101 101 101 172 172 172 172 62 62 62 131 131 210 210 210 164 164
 164 164 164 164 159 208 184 208 208 208 208 15 15 15 172 172 172 172 172 172
 131 131 131 131 131 193 193 164 164 164 164 164 164 208 208 208 208 208 208 208
 15 15 15 172 172 172 172 172 172 131 131 131 131 131 193 193 193 193 164 164
 164 157 157 208 208 208 208 208 15 15 15 15 172 172 172 172 172 240 131 131
 131 131 131 193 193 193 145 145 145 145 145 157 208 208 68 68 68 15 15 12
 12 12 12 12 12 240 240 131 131 131 131 131 193 193 145 145 145 145 145 145
 22 22 208 68 68 68 1 12 12 12 12 12 12 12 6 6 6 131 131 131
 131 9 145 145 145 145 145 145 67 22 22 22 3 1 1 1 12 12 12 12
 12 12 12 6 6 6 6 131 9 9 9 145 145 145 145 67 67 67 22 22
 22 22 1 1 1 1 12 12 12 12 12 12 6 6 6 6 9 9 9 9
 9 145 145 67 67 67 67 22 22 22 1 1 1 1 1 12 12 12 12 12
 12 71 71 71 71 18 18 18 18 18 145 67 67 67 67 67 22 22 22 1
 1 1 1 1 12 12 12 12 12 12 71 71 71 71 18 18 18 18 18 18
 67 67 67 67 67 67 22 22 125 125 125 125 125 125 12 12 12 12 12 71
 71 71 71 71 18 18 18 18 18 67 181 181 67 67 134 134 22 125 125 125
 125 125 125 119 119 12 12 12 71 71 71 71 71 18 18 18 18 18 181 181
 181 181 134 134 134 134 125 125 125 125 125 119 119 119 119 119 138 138 71 71
 71 44 44 44 44 44 44 181 181 181 134 134 134 134 134 125 125 119 119 119
 119 119 119 119 138 138 138 138 138 44 44 44 44 44 44 44 134 134 134 134
 134 134 134 134 119 119 119 119 119 119 119 119 119 138 138 138 138 138 44 44
 44 44 44 44 44 134 134 134 134 134 134 134 109 119 119 119 119 119 119 119
 119 119 138 138 138 138 138 44 44 44 44 44 44 195 30 134 134 134 134 134
 134 109 119 119 119 119 119 119 119 119 119 138 138 138 138 138 44 44 44 195
 195 195 195 30 30 134 134 134 134 134 109 119 119 119 119 119 119 119 119 183
 183 138 138 138 34 34 34 195 195 195 195 195 30 30 30 134 134 134 134 109
 81 81 81 81 119 119 183 183 183 183 183 209 209 34 34 34 34 195 195 195
 30 30 30 30 30 30 134 134 109 81 81 81 81 81 81 183 183 183 183 209
 209 209 209 34 34 34 195 195 195 30 30 30 30 91 91 91 42 42 81 81
 81 81 81 81 183 183 183 183 209 209 209 209 221 221 221 221 204 204 30 30
 30 91 91 91 91 42 42 81 81 81 81 81 81 183 176 176 176 209 209 209
 209 221 221 221 221 204 204 204 30 91 91 91 91 91 42 42 81 81 81 81
 81 81 47 47 47 47 209 209 209 221 221 221 221 221 204 204 204 204 91 91
 91 91 42 42 42 81 81 81 81 81 81 47 47 47 47 186 209 209 142 142
 142 142 142 204 204 204 204 91 91 91 91 155 155 155 81 81 81 81 81 81
 47 47 47 47 186 186 62 62 142 142 142 142 204 204 204 204 91 91 91 159
 155 155 155 20 20 20 101 101 101 101 101 116 116 116 116 116 62 62 62 142
 210 210 210 210 210 164 159 159 159 159 159 20 20 20 20 101 101 101 101 101
 101 116 116 116 116 62 62 62 210 210 210 210 210 210 164 84 159 159 159 159
 20 20 20 20 101 101 101 101 101 101 116 116 116 116 62 62 62 210 210 210
 210 210 210 164 84 159 159 159 159 20 208 208 208 208 101 101 101 101 101 116
 116 116 116 62 62 62 210 210 210 210 210 164 164 84 84 159 159 159 20 208
 208 208 208 15 101 101 101 172 172 172 172 116 62 62 131 210 210 210 210 210
 164 164 164 84 159 159 208 208 208 208 208 208 15 15 15 15 172 172 172 172
 172 131 131 131 131 210 210 193 193 164 164 164 84 159 208 208 208 208 208 208
 208 15 15 15 15 172 172 172 172 172 131 131 131 131 193 193 193 193 193 164
 164 84 208 208 208 208 208 208 208 15 15 15 15 15 172 172 172 172 131 131
 131 131 131 193 193 193 193 145 145 145 145 145 208 208 208 208 208 208 15 15
 15 12 12 12 12 12 59 131 131 131 131 131 193 193 193 145 145 145 145 145
 145 208 208 208 3 3 21 21 12 12 12 12 12 12 12 59 6 6 131 131
 131 9 193 145 145 145 145 145 145 67 22 22 3 3 3 21 21 12 12 12
 12 12 12 12 6 6 6 6 9 9 9 9 145 145 145 145 145 67 67 22
 22 3 3 3 21 21 21 12 12 12 12 12 12 71 71 71 71 9 9 9
 9 9 145 145 145 67 67 67 67 22 3 3 21 21 21 21 12 12 12 12
 12 12 71 71 71 71 71 9 9 9 9 191 191 67 67 67 67 67 22 22
 21 21 21 21 21 12 12 12 12 12 71 71 71 71 71 71 18 18 18 18
 191 191 67 67 67 67 67 22 11 11 21 21 21 21 12 12 12 12 12 71
 71 71 71 71 71 18 18 18 18 191 191 181 181 181 67 134 134 11 11 125
 125 125 125 119 119 119 12 12 138 71 71 71 71 71 44 44 44 44 44 181
 181 181 181 134 134 134 11 11 125 125 119 119 119 119 119 119 138 138 138 71
 71 71 44 44 44 44 44 44 181 181 181 181 134 134 134 134 11 119 119 119
 119 119 119 119 119 138 138 138 138 138 44 44 44 44 44 44 44 181 181 134
 134 134 134 134 134 119 119 119 119 119 119 119 119 119 138 138 138 138 138 44
 44 44 44 44 44 44 181 181 134 134 134 134 134 134 119 119 119 119 119 119
 119 119 119 138 138 138 138 138 44 44 44 44 44 44 44 30 134 134 134 134
 134 134 134 119 119 119 119 119 119 119 119 119 119 138 138 138 138 34 44 44
 44 195 195 195 30 30 134 134 134 134 134 109 119 119 119 119 119 119 119 119
 183 183 138 138 138 34 34 34 34 195 195 195 195 30 30 30 134 134 134 134
 109 81 81 81 81 119 119 183 183 183 183 209 209 209 209 34 34 34 195 195
 195 30 30 30 30 30 134 42 42 42 81 81 81 81 81 81 183 183 183 183
 209 209 209 209 34 34 34 34 195 204 30 30 30 30 91 91 42 42 42 81
 81 81 81 81 81 183 183 183 183 209 209 209 209 221 221 221 221 204 204 204
 30 30 91 91 91 42 42 42 81 81 81 81 81 81 183 183 183 209 209 209
 209 209 221 221 221 221 204 204 204 204 91 91 91 91 42 42 42 81 81 81
 81 81 81 81 47 47 209 209 209 209 209 221 221 221 221 204 204 204 204 91
 91 91 42 42 42 42 81 81 81 81 81 81 47 47 47 47 209 209 209 209
 221 221 221 221 204 204 204 204 91 91 91 159 42 42 42 81 81 81 81 81
 81 47 47 47 116 116 116 116 116 142 142 142 142 204 204 204 204 91 91 159
 159 159 159 159 20 20 20 20 101 101 101 101 116 116 116 116 116 116 62 45
 45 210 210 210 210 210 84 159 159 159 159 159 20 20 20 20 20 101 101 101
 101 116 116 116 116 116 116 62 45 210 210 210 210 210 210 84 84 159 159 159
 159 20 20 20 20 20 101 101 101 101 101 116 116 116 116 116 62 210 210 210
 210 210 210 210 84 84 84 159 159 159 20 20 20 208 208 101 101 101 101 101
 116 116 116 116 116 116 210 210 210 210 210 210 210 84 84 84 159 159 20 20
 208 208 208 208 15 15 15 15 172 172 172 116 116 116 116 210 210 210 210 210
 210 210 84 84 84 84 159 208 208 208 208 208 208 15 15 15 15 172 172 172
 172 36 202 202 202 202 210 210 210 210 210 84 84 84 84 208 208 208 208 208
 208 208 15 15 15 15 172 172 172 36 36 202 202 202 202 193 193 193 193 193
 84 84 84 208 208 208 208 208 208 208 15 15 15 15 15 15 172 36 59 36
 202 202 202 202 193 193 193 193 145 145 145 145 145 208 208 208 208 208 208 15
 15 15 15 15 12 59 59 59 59 202 202 202 202 193 193 193 145 145 145 145
 145 145 208 208 208 3 3 3 3 15 12 12 12 12 12 59 59 59 59 202
 202 131 193 193 145 145 145 145 145 145 145 26 3 3 3 3 3 21 21 12
 12 12 12 12 59 59 59 6 9 9 9 9 9 145 145 145 145 145 67 67
 26 3 3 3 3 21 21 21 12 12 12 12 12 12 71 71 71 71 9 9
 9 9 9 145 145 145 67 67 67 26 3 3 3 3 21 21 21 21 12 12
 12 12 12 71 71 71 228 228 9 9 9 9 191 191 191 67 67 67 67 3
 3 11 21 21 21 21 21 12 12 12 12 71 71 71 71 71 71 18 18 18
 191 191 191 191 181 67 67 67 11 11 11 11 21 21 21 21 12 12 12 158
 228 228 71 71 71 71 18 44 44 191 191 191 181 181 181 67 134 11 11 11
 11 11 11 21 119 119 119 12 158 158 228 71 71 71 71 44 44 44 44 191
 191 181 181 181 134 134 11 11 11 11 11 11 119 119 119 119 119 138 138 138
 71 71 71 44 44 44 44 44 44 181 181 181 181 134 134 11 11 11 11 11
 119 119 119 119 119 119 138 138 138 138 138 44 44 44 44 44 44 44 181 181
 181 134 134 134 134 11 11 11 119 119 119 119 119 119 119 138 138 138 138 138
 44 44 44 44 44 44 44 44 134 134 134 134 134 134 11 119 119 119 119 119
 119 119 119 119 138 138 138 138 138 44 44 44 44 44 44 44 44 134 134 134
 134 134 134 11 119 119 119 119 119 119 119 119 119 119 138 138 138 138 34 34
 44 44 44 195 195 30 30 134 134 134 134 134 28 28 119 119 119 119 119 119
 119 183 183 138 138 138 34 34 34 34 195 195 195 195 30 30 30 134 134 134
 42 42 81 81 81 81 119 119 183 183 183 183 209 209 209 209 34 34 34 195
 195 195 30 30 30 30 139 139 42 42 42 81 81 81 81 81 81 183 183 183
 183 209 209 209 209 34 34 34 34 204 204 204 30 30 30 139 42 42 42 42
 81 81 81 81 81 81 183 183 183 209 209 209 209 209 221 221 221 221 204 204
 204 204 30 91 91 42 42 42 42 81 81 81 81 81 81 183 183 183 209 209
 209 209 209 221 221 221 221 204 204 204 204 91 91 91 42 42 42 42 81 81
 81 81 81 81 81 47 47 209 209 209 209 209 221 221 221 221 204 204 204 204
 91 91 91 42 42 42 42 81 81 81 81 81 81 81 47 47 116 209 209 209
 209 221 221 221 221 204 204 204 204 91 91 159 42 42 42 42 81 81 81 81
 81 81 81 47 116 116 116 116 116 116 221 221 221 221 204 204 204 204 159 159
 159 159 159 159 42 20 20 20 20 20 147 147 147 116 116 116 116 116 116 32
 45 45 45 210 210 210 210 210 159 159 159 159 159 20 20 20 20 20 20 147
 147 147 116 116 116 116 116 116 32 45 45 210 210 210 210 210 84 84 159 159
 159 159 20 20 20 20 20 20 147 147 147 147 116 116 116 116 116 32 45 45
 210 210 210 210 210 84 84 84 159 159 20 20 20 20 20 208 208 147 147 147
 147 116 116 116 116 116 32 45 210 210 210 210 210 210 84 84 84 84 159 20
 20 208 208 208 208 15 15 15 147 147 147 36 36 36 116 32 210 210 210 210
 210 210 210 84 84 84 84 159 208 208 208 208 208 208 15 15 15 15 147 36
 36 36 36 36 202 202 202 210 210 210 210 210 84 84 84 84 208 208 208 208
 208 208 208 15 15 15 15 36 36 36 36 36 36 202 202 202 202 210 210 210
 210 84 84 84 84 208 208 208 208 208 208 208 15 15 15 15 36 36 36 36
 36 202 202 202 202 202 193 193 193 145 145 145 223 175 208 208 208 3 208 208
 208 15 15 15 15 59 59 59 59 59 59 202 202 202 202 167 167 145 145 145
 145 223 223 26 26 208 3 3 3 3 192 192 192 192 192 59 59 59 59 59
 202 202 202 167 167 167 145 145 145 145 145 26 26 26 3 3 3 3 21 21
 192 192 192 192 59 59 59 59 59 202 9 9 9 167 167 145 145 145 145 223
 26 26 26 3 3 3 21 21 21 192 192 192 192 59 59 59 228 228 228 228
 9 9 9 9 191 191 191 191 67 26 26 26 3 3 3 21 21 21 21 192
 192 192 158 158 158 228 228 228 228 153 153 153 191 191 191 191 191 67 26 26
 26 26 11 11 21 21 21 21 192 192 192 158 158 228 228 228 228 228 153 153
 153 191 191 191 191 191 67 26 26 26 11 11 11 11 21 21 21 192 192 158
 158 158 158 228 228 228 228 153 153 153 191 191 191 191 191 181 11 11 11 11
 11 11 11 11 11 119 119 119 237 158 158 158 228 228 228 228 153 153 153 191
 191 191 191 181 181 134 11 11 11 11 11 11 11 11 119 119 119 237 237 158
 158 228 228 228 44 44 44 44 44 191 191 181 181 181 134 11 11 11 11 11
 11 11 119 119 119 119 237 237 138 138 138 138 44 44 44 44 44 44 44 191
 181 181 134 134 134 11 11 11 11 11 119 119 119 119 119 119 138 138 138 138
 229 229 44 163 163 44 44 44 44 134 134 134 134 134 11 11 28 119 119 119
 119 119 119 119 119 138 138 138 138 229 229 163 163 163 163 163 163 163 134 134
 134 134 134 11 11 28 28 119 119 119 119 119 119 119 119 138 138 138 229 229
 163 163 163 163 163 163 51 51 51 51 51 51 28 28 28 28 28 119 119 119
 119 119 119 119 138 138 138 34 34 34 34 163 163 195 195 211 30 139 139 139
 139 139 28 28 28 28 119 119 119 119 183 183 183 209 209 209 34 34 34 34
 34 195 211 211 211 211 139 139 139 139 139 42 190 81 81 81 81 81 183 183
 183 183 209 209 209 209 34 34 34 34 204 211 211 211 211 139 139 139 139 42
 42 190 81 81 81 81 81 183 183 183 209 209 209 209 209 221 221 221 221 204
 204 211 211 211 139 139 139 42 42 42 190 81 81 81 81 81 81 183 16 209
 209 209 209 209 221 221 221 221 204 204 204 211 211 139 139 42 42 42 42 190
 81 81 81 81 81 81 81 16 209 209 209 209 209 221 221 221 221 204 204 204
 204 211 91 42 42 42 42 42 190 81 81 81 81 81 81 81 116 116 209 209
 209 209 221 221 221 221 204 204 204 204 211 91 42 42 42 42 42 190 81 81
 81 81 81 81 47 116 116 116 116 116 32 32 45 45 45 204 204 204 204 159
 159 159 159 159 159 42 20 20 20 20 20 147 147 147 116 116 116 116 32 32
 32 45 45 45 210 210 210 210 210 84 159 159 159 159 20 20 20 20 20 20
 147 147 147 147 116 116 116 116 32 32 45 45 45 210 210 210 210 84 84 84
 159 159 20 20 20 20 20 20 20 147 147 147 147 116 116 116 116 32 32 45
 45 210 210 210 210 210 84 84 84 159 159 20 20 20 20 20 208 208 147 147
 147 147 147 116 116 116 32 32 45 45 210 210 210 210 210 84 84 84 84 159
 20 20 208 208 208 208 208 15 147 147 147 147 36 36 36 36 32 45 210 210
 210 210 210 210 84 84 84 84 20 20 20 208 208 208 208 15 15 15 147 147
 36 36 36 36 36 36 202 210 210 210 210 210 210 84 84 84 84 208 208 208
 208 208 208 208 15 15 15 15 36 36 36 36 36 36 202 202 202 202 210 210
 210 210 84 84 84 175 208 208 208 208 208 208 208 15 15 15 15 36 36 36
 36 36 36 202 202 202 202 167 167 167 167 223 223 223 175 175 175 208 3 208
 208 208 15 192 192 192 36 36 59 59 36 36 202 202 202 167 167 167 167 167
 223 223 223 223 26 175 208 3 3 3 3 192 192 192 192 192 59 59 59 59
 59 59 202 202 167 167 167 167 167 223 223 223 223 26 26 26 3 3 3 21
 192 192 192 192 192 59 59 59 59 59 59 202 167 167 167 167 167 167 223 223
 223 26 26 26 26 3 3 3 21 192 192 192 192 192 192 59 59 59 228 228
 228 153 153 153 167 167 191 191 223 223 26 26 26 26 3 11 11 21 21 192
 192 192 192 158 158 158 158 228 228 228 153 153 153 153 191 191 191 191 26 26
 26 26 26 11 11 11 21 21 192 192 192 192 158 158 158 228 228 228 153 153
 153 153 153 191 191 191 191 191 26 26 26 11 11 11 11 11 11 11 192 192
 192 158 158 158 158 228 228 153 153 153 153 153 191 191 191 191 191 11 11 11
 11 11 11 11 11 11 11 237 237 237 158 158 158 158 228 228 153 153 153 153
 153 191 191 191 181 181 11 11 11 11 11 11 11 11 11 11 237 237 237 237
 237 237 158 228 228 229 44 44 44 44 191 191 191 181 181 11 11 11 11 11
 11 11 11 11 119 237 237 237 237 237 237 237 229 229 229 163 163 163 163 163
 191 51 51 51 11 11 11 11 11 11 11 11 119 119 119 237 237 237 237 138
 229 229 229 229 163 163 163 163 163 163 51 51 51 51 11 11 11 28 28 28
 119 119 119 119 237 237 237 237 138 229 229 229 229 163 163 163 163 163 163 51
 51 51 51 51 11 11 28 28 28 119 119 119 119 119 119 237 237 138 229 229
 229 229 163 163 163 163 163 51 51 51 51 51 51 28 28 28 28 28 28 119
 119 119 119 119 201 201 201 201 229 229 229 163 163 163 163 211 211 211 139 139
 139 139 139 28 28 28 28 28 119 119 119 183 183 16 16 16 201 201 229 229
 34 163 211 211 211 211 211 139 139 139 139 139 28 190 28 28 95 95 95 183
 183 16 16 16 16 209 209 233 233 233 211 211 211 211 211 211 139 139 139 139
 190 190 190 190 95 95 95 95 183 183 16 16 16 16 209 209 233 233 233 233
 211 211 211 211 211 139 139 139 139 190 190 190 190 95 95 95 95 81 16 16
 16 16 16 209 209 233 233 233 233 211 211 211 211 211 139 139 139 42 42 190
 190 95 95 95 95 95 81 16 16 16 16 16 209 233 233 233 233 233 204 211
 211 211 211 139 139 42 42 42 190 190 95 95 95 81 81 81 16 16 16 16
 16 32 32 233 233 233 45 187 187 211 211 211 139 139 42 42 42 190 190 95
 81 81 81 81 81 116 116 116 116 116 32 32 32 45 45 45 45 187 187 187
 187 159 159 159 159 42 190 20 20 20 20 147 147 147 147 116 116 116 32 32
 32 32 45 45 45 187 187 210 132 132 84 61 61 159 20 20 20 20 20 20
 147 147 147 147 147 116 116 32 32 32 32 45 45 45 210 210 210 132 132 84
 84 61 61 20 20 20 20 20 20 147 147 147 147 147 147 218 116 32 32 32
 45 45 45 210 210 210 132 132 84 84 61 61 20 20 20 20 20 208 208 147
 147 147 147 147 218 218 32 32 32 45 45 210 210 210 210 132 132 84 84 61
 61 20 20 208 208 208 208 208 147 147 147 147 147 36 36 36 32 32 45 210
 210 210 210 210 132 84 84 84 61 175 20 20 208 208 208 208 208 15 147 147
 147 36 36 36 36 36 36 202 210 210 210 210 210 210 84 84 84 175 175 175
 208 208 208 208 208 208 15 15 15 36 36 36 36 36 36 36 202 168 168 210
 210 210 210 223 223 175 175 175 175 175 208 208 208 208 15 15 15 36 36 36
 36 36 36 36 36 202 168 168 167 167 167 167 223 223 223 175 175 175 175 175
 208 208 208 192 192 192 192 36 36 36 36 36 36 36 202 202 167 167 167 167
 167 223 223 223 223 175 175 175 3 3 3 192 192 192 192 192 192 59 59 59
 59 59 59 202 174 167 167 167 167 167 223 223 223 223 26 26 26 3 3 3
 192 192 192 192 192 192 59 59 59 59 59 59 174 174 167 167 167 167 167 223
 223 223 223 26 26 26 3 3 11 192 192 192 192 192 192 192 59 59 59 59
 59 153 153 153 153 167 167 223 223 223 223 26 26 26 26 11 11 11 11 192
 192 192 192 192 158 158 158 158 158 228 153 153 153 153 153 191 191 191 223 223
 26 26 26 26 11 11 11 11 11 192 192 192 192 158 158 158 158 158 228 153
 153 153 153 153 191 191 191 191 191 26 26 26 11 11 11 11 11 11 192 192
 192 192 158 158 158 158 158 228 153 153 153 153 153 191 191 191 191 11 11 11
 11 11 11 11 11 11 11 11 237 237 237 237 158 158 158 158 228 153 153 153
 153 153 153 191 191 181 11 11 11 11 11 11 11 11 11 11 237 237 237 237
 237 237 237 158 158 229 229 229 229 153 153 153 191 191 51 51 11 11 11 11
 11 11 11 11 11 237 237 237 237 237 237 237 237 229 229 229 229 163 163 163
 163 51 51 51 51 51 11 11 11 11 11 11 11 11 237 237 237 237 237 237
 237 229 229 229 229 163 163 163 163 163 51 51 51 51 51 200 200 11 28 28
 28 11 119 119 237 237 237 237 237 237 229 229 229 229 163 163 163 163 163 51
 51 51 51 51 51 200 200 28 28 28 28 119 119 119 237 237 237 237 201 229
 229 229 229 163 163 163 163 163 51 51 51 51 51 51 200 28 28 28 28 28
 119 119 119 237 237 201 201 201 201 229 229 229 229 163 163 163 211 211 51 51
 51 51 139 139 28 28 28 28 28 118 118 118 118 16 201 201 201 201 201 229
 229 229 229 211 211 211 211 211 139 139 139 139 139 28 190 28 28 95 95 118
 118 118 16 16 16 16 201 201 233 233 233 233 211 211 211 211 211 139 139 139
 139 190 190 190 190 95 95 95 95 118 16 16 16 16 16 16 233 233 233 233
 233 211 211 211 211 211 139 139 139 139 190 190 190 95 95 95 95 95 95 16
 16 16 16 16 16 233 233 233 233 233 211 211 211 211 211 139 139 139 86 190
 190 190 95 95 95 95 95 95 16 16 16 16 16 16 233 233 233 233 233 187
 187 211 211 211 139 139 86 86 190 190 190 95 95 95 95 95 95 16 16 16
 16 16 32 32 233 233 233 187 187 187 187 187 187 187 86 86 86 86 190 190
 95 95 95 95 95 95 116 116 116 218 32 32 32 32 45 45 45 187 187 187
 187 187 187 86 86 86 86 190 20 20 20 20 147 147 147 147 218 218 218 218
 32 32 32 45 45 45 187 187 187 187 132 61 61 61 61 61 20 20 20 20
 20 147 147 147 147 147 218 218 218 32 32 32 45 45 45 132 132 132 132 132
 61 61 61 61 61 20 20 20 20 20 147 147 147 147 147 218 218 218 32 32
 32 45 45 45 132 132 132 132 132 132 61 61 61 61 20 20 20 20 208 147
 147 147 147 147 147 218 218 32 32 32 45 45 45 132 132 132 132 132 132 61
 61 61 61 20 208 208 208 208 147 147 147 147 147 147 36 36 224 224 224 224
 45 210 132 132 132 132 132 132 61 61 61 61 20 208 208 208 208 208 147 147
 147 147 36 36 36 224 224 224 224 168 168 132 132 132 132 132 132 175 175 175
 175 175 175 208 208 208 208 15 15 147 36 36 36 36 36 224 224 168 168 168
 168 132 132 132 223 223 223 175 175 175 175 175 208 208 208 156 15 192 36 36
 36 36 36 36 36 36 168 168 168 168 167 167 223 223 223 223 175 175 175 175
 175 208 156 156 192 192 192 192 192 36 59 36 36 36 36 168 168 168 167 167
 167 223 223 223 223 223 175 175 175 175 3 3 192 192 192 192 192 192 59 59
 59 59 59 59 174 174 167 167 167 167 223 223 223 223 223 26 26 175 26 3
 3 192 192 192 192 192 192 59 59 59 59 59 59 174 174 174 167 167 167 223
 223 223 223 223 26 26 26 11 11 11 192 192 192 192 192 192 192 59 59 59
 59 59 174 174 174 174 174 167 223 223 223 223 26 26 26 26 11 11 11 11
 192 192 192 192 192 158 158 158 158 158 228 153 153 153 153 153 167 223 223 223
 223 26 26 26 26 11 11 11 11 11 192 192 192 192 158 158 158 158 158 228
 153 153 153 153 153 153 191 191 223 223 26 26 26 11 11 11 11 11 11 192
 192 192 237 158 158 158 158 158 228 153 153 153 153 153 153 191 191 66 66 11
 11 11 11 11 11 11 11 11 237 237 237 237 237 237 158 158 158 153 153 153
 153 153 153 153 191 191 39 39 11 11 11 11 11 11 11 11 11 237 237 237
 237 237 237 237 158 229 229 229 229 229 153 153 153 191 51 51 51 11 11 11
 11 11 11 11 11 11 237 237 237 237 237 237 237 229 229 229 229 229 229 163
 163 163 51 51 51 51 51 200 200 11 11 11 11 11 11 237 237 237 237 237
 237 237 229 229 229 229 229 163 163 163 163 51 51 51 51 51 200 200 200 200
 28 28 11 119 237 237 237 237 237 237 88 229 229 229 229 229 163 163 163 163
 51 51 51 51 51 200 200 200 28 28 28 28 28 119 237 237 237 237 201 201
 229 229 229 229 229 163 163 163 163 51 51 51 51 51 51 200 200 28 28 28
 28 118 118 118 237 237 201 201 201 201 201 229 229 229 229 163 163 211 51 51
 51 51 51 51 200 28 28 28 28 28 118 118 118 118 201 201 201 201 201 201
 201 229 229 229 163 211 211 211 51 51 139 139 139 139 28 190 28 28 95 118
 118 118 118 16 16 201 201 201 201 233 233 233 233 211 211 211 211 211 139 139
 139 139 86 190 190 190 95 95 95 118 118 118 107 107 16 16 16 233 233 233
 233 233 211 211 211 211 211 139 139 139 86 86 190 190 95 95 95 95 95 118
 107 107 107 16 16 16 233 233 233 233 233 233 211 211 211 211 139 139 86 86
 86 86 86 95 95 95 95 95 95 107 107 107 16 16 16 233 233 233 233 233
 187 187 187 187 187 86 86 86 86 86 86 86 95 95 95 95 95 95 107 107
 107 16 16 16 233 233 233 233 187 187 187 187 187 187 187 86 86 86 86 86
 86 95 95 95 95 95 160 107 107 107 218 218 32 32 32 45 45 187 187 187
 187 187 187 187 86 86 86 86 86 20 20 199 199 160 160 160 160 160 218 218
 218 218 32 32 45 45 45 187 187 187 187 187 61 61 61 61 61 61 20 20
 199 199 160 160 160 160 160 218 218 218 218 32 32 45 45 45 132 132 132 132
 132 61 61 61 61 61 61 20 199 199 199 199 80 80 80 80 218 218 218 218
 32 32 45 45 45 132 132 132 132 132 61 61 61 61 61 61 20 199 199 199
 199 80 80 80 80 80 218 218 218 224 224 45 45 132 132 132 132 132 132 132
 61 61 61 61 61 208 199 199 199 103 103 80 80 80 80 218 218 224 224 224
 224 224 132 132 132 132 132 132 132 61 61 61 61 61 175 208 156 156 103 103
 80 80 80 36 36 224 224 224 224 224 168 168 132 132 132 132 132 132 61 175
 175 175 175 175 175 156 156 156 156 80 185 185 36 36 36 224 224 224 168 168
 168 168 132 132 132 223 223 223 175 175 175 175 175 175 156 156 156 156 185 63
 63 63 36 36 36 224 224 168 168 168 168 168 167 223 223 223 223 175 175 175
 175 175 175 156 156 156 192 192 63 63 63 63 59 59 36 36 168 168 168 168
 167 167 223 223 223 223 223 175 175 175 175 175 156 156 192 192 192 192 63 63
 59 59 59 59 59 174 174 174 174 167 167 223 223 223 223 223 175 175 175 26
 3 156 192 192 192 192 192 192 63 59 59 59 59 59 174 174 174 174 174 167
 223 223 223 223 223 26 26 26 11 11 11 192 192 192 192 192 192 192 59 59
 59 59 174 174 174 174 174 174 167 223 223 223 223 223 26 26 26 11 11 11
 11 192 192 192 192 192 207 158 158 158 158 158 174 174 174 174 174 174 223 223
 223 66 66 26 26 26 11 11 11 11 11 192 192 192 207 207 158 158 158 158
 158 153 153 153 153 153 153 223 223 66 66 66 66 26 11 11 11 11 11 11