# vtk DataFile Version 2.0
Data set from ImportExport Version 6.5.171.b0b162591
ASCII

DATASET RECTILINEAR_GRID
DIMENSIONS 30 30 30
X_COORDINATES 30 float
-1.250000 1.250000 3.750000 6.250000 8.750000 11.250000 13.750000 16.250000 18.750000 21.250000 23.750000 26.250000 28.750000 31.250000 33.750000 36.250000 38.750000 41.250000 43.750000 46.250000 48.750000 
51.250000 53.750000 56.250000 58.750000 61.250000 63.750000 66.250000 68.750000 71.250000 
Y_COORDINATES 30 float
-1.250000 1.250000 3.750000 6.250000 8.750000 11.250000 13.750000 16.250000 18.750000 21.250000 23.750000 26.250000 28.750000 31.250000 33.750000 36.250000 38.750000 41.250000 43.750000 46.250000 48.750000 
51.250000 53.750000 56.250000 58.750000 61.250000 63.750000 66.250000 68.750000 71.250000 
Z_COORDINATES 30 float
-1.250000 1.250000 3.750000 6.250000 8.750000 11.250000 13.750000 16.250000 18.750000 21.250000 23.750000 26.250000 28.750000 31.250000 33.750000 36.250000 38.750000 41.250000 43.750000 46.250000 48.750000 
51.250000 53.750000 56.250000 58.750000 61.250000 63.750000 66.250000 68.750000 71.250000 
CELL_DATA 24389
SCALARS FeatureIds int 1
LOOKUP_TABLE default
 115 115 115 115 206 206 206 206 206 109 109 109 109 109 109 109 125 125 125 125
 5 5 5 5 181 181 53 53 53 127 115 115 206 206 206 206 206 109 109 109
 109 109 109 109 109 125 125 125 125 5 5 5 5 181 181 181 181 53 127 127
 206 206 206 206 206 206 206 109 109 109 109 109 109 109 125 125 125 125 5 5
 5 5 181 181 181 181 127 127 127 127 127 206 206 206 206 109 109 109 109 109
 109 109 109 161 161 125 125 5 5 182 182 157 181 157 127 127 127 127 127 127
 206 206 206 206 109 109 109 109 109 109 109 55 161 161 161 161 5 182 182 157
 157 157 157 157 127 127 127 127 127 15 186 186 186 134 134 134 109 109 55 55
 55 55 161 161 161 161 157 157 157 157 157 157 157 127 127 127 15 15 15 15
 15 134 134 134 134 134 55 55 55 55 55 55 161 161 119 119 119 157 157 157
 157 157 127 127 15 15 15 15 15 15 134 134 134 134 134 55 55 55 55 55
 55 55 55 119 119 119 119 157 157 157 157 127 127 15 15 15 15 15 15 108
 108 108 108 108 55 55 55 55 55 55 218 218 119 119 119 119 119 157 157 157
 157 15 15 15 15 15 15 15 108 108 108 108 108 108 55 55 55 55 218 218
 218 218 119 119 119 119 211 211 211 211 102 102 102 102 15 15 15 108 212 212
 212 212 212 49 49 49 49 218 218 218 218 119 119 119 119 237 211 211 102 102
 102 102 102 102 2 2 212 212 212 212 212 49 49 49 49 49 218 218 218 218
 119 119 119 119 237 237 211 102 102 102 102 102 102 2 2 212 212 212 212 212
 49 49 49 49 49 49 218 218 218 71 119 119 119 237 237 102 102 102 102 102
 102 102 2 2 212 212 212 212 212 49 49 49 49 49 49 49 218 218 71 119
 119 119 237 151 102 102 102 102 102 102 102 54 54 54 238 212 212 49 49 49
 49 49 49 49 49 49 218 52 52 52 52 52 151 151 151 151 102 102 102 54
 54 54 54 238 238 238 49 49 49 49 49 49 49 49 49 52 52 52 52 52
 52 52 151 151 144 144 144 144 54 54 54 54 238 238 238 238 49 49 49 49
 49 49 215 52 52 52 52 52 52 52 52 151 151 144 144 144 144 54 54 54
 54 238 238 238 238 238 49 49 49 49 215 215 52 52 52 52 52 52 52 52
 52 151 144 144 144 144 144 54 54 54 238 238 238 238 238 114 114 114 114 215
 215 52 52 52 52 52 52 52 52 52 144 144 144 144 144 54 54 54 54 238
 238 238 238 238 114 114 114 114 114 114 52 52 52 52 52 52 52 52 144 144
 144 144 144 37 37 54 54 54 54 238 238 238 238 114 114 114 114 114 114 12
 12 52 52 52 52 52 52 144 144 144 144 37 37 37 54 54 54 54 238 238
 202 202 114 114 114 114 114 114 12 12 12 12 52 20 20 20 20 144 144 144
 37 37 37 54 54 54 54 238 154 202 202 114 114 114 114 114 114 12 12 12
 12 20 20 20 20 20 20 216 216 37 37 37 54 54 54 54 238 154 202 202
 114 114 114 114 114 114 12 12 12 12 20 20 20 20 20 216 216 216 115 115
 115 115 115 54 54 238 154 202 202 114 114 114 114 114 114 68 68 118 20 20
 20 20 20 216 216 216 115 115 115 115 115 115 115 54 238 109 234 234 234 234
 234 114 114 68 68 68 118 68 20 20 20 216 216 216 216 115 115 115 115 115
 61 61 109 109 109 234 234 234 234 234 234 234 68 68 68 68 68 20 20 216
 216 216 216 53 115 115 115 115 115 61 61 109 109 109 234 234 234 234 234 234
 234 68 68 68 5 5 5 53 53 53 53 53 53 115 115 115 115 115 206 206
 109 109 109 109 109 234 234 234 234 125 125 125 5 5 5 5 5 53 53 53
 53 115 115 115 115 206 206 206 206 109 109 109 109 109 109 109 109 125 125 125
 125 125 68 68 181 181 181 181 53 53 115 115 115 206 206 206 206 206 109 109
 109 109 109 109 109 109 125 125 125 125 125 125 182 181 181 181 181 181 53 127
 127 206 206 206 206 206 206 109 109 109 109 109 109 109 109 125 125 125 125 125
 125 182 182 181 181 181 181 181 127 127 127 127 206 206 206 206 109 109 109 109
 109 109 109 161 161 161 125 125 125 182 182 182 181 181 181 181 127 127 127 127
 127 206 206 206 206 109 109 109 109 109 109 161 161 161 161 161 161 125 182 182
 182 157 157 157 157 127 127 127 127 127 15 15 15 134 134 134 134 109 109 109
 161 161 161 161 161 161 161 182 182 157 157 157 157 157 127 127 127 15 15 15
 15 15 134 134 134 134 134 134 55 55 161 161 161 161 161 119 119 119 157 157
 157 157 157 127 127 15 15 15 15 15 15 134 134 134 134 134 55 55 55 55
 161 161 161 161 119 119 119 119 157 157 157 157 157 127 15 15 15 15 15 15
 108 108 108 108 108 108 55 55 55 55 55 218 119 119 119 119 119 119 157 157
 157 157 15 15 15 15 15 15 15 108 108 108 108 108 108 49 49 49 49 49
 218 71 71 119 119 119 119 211 211 211 157 102 102 200 200 200 15 108 108 212
 212 212 212 212 49 49 49 49 49 49 71 71 71 119 119 119 237 211 211 102
 102 102 200 200 200 200 212 212 212 212 212 212 49 49 49 49 49 49 49 71
 71 71 119 119 119 237 237 211 102 102 102 200 200 200 200 212 212 212 212 212
 212 49 49 49 49 49 49 49 71 71 71 71 119 119 237 237 102 102 102 102
 200 200 200 200 212 212 212 212 212 212 49 49 49 49 49 49 49 49 71 71
 71 71 119 151 151 151 151 151 102 200 200 200 200 54 54 212 212 212 49 49
 49 49 49 49 49 49 49 71 52 52 52 52 151 151 151 151 151 151 175 175
 54 54 54 54 238 238 238 19 19 49 49 49 49 49 49 49 52 52 52 52
 52 52 151 151 151 175 175 175 175 54 54 54 54 238 238 238 238 19 19 49
 49 49 49 215 215 52 52 52 52 52 52 151 151 151 175 175 175 175 54 54
 54 54 238 238 238 238 238 19 49 215 215 215 215 215 52 52 52 52 52 52
 52 151 175 175 175 175 175 54 54 54 54 238 238 238 238 238 238 114 215 215
 215 215 215 52 52 52 52 52 52 52 175 175 175 175 175 175 54 54 54 54
 238 238 238 238 238 114 114 114 114 114 215 215 52 52 52 52 52 52 52 175
 175 175 175 175 175 54 54 54 54 54 238 238 238 238 114 114 114 114 114 114
 12 12 12 12 52 52 52 20 175 175 175 175 175 175 37 54 54 54 54 238
 238 238 238 114 114 114 114 114 114 12 12 12 12 12 20 20 20 20 175 175
 175 175 37 37 54 54 54 54 238 238 238 202 114 114 114 114 114 114 12 12
 12 12 20 20 20 20 20 175 216 216 175 37 37 54 54 54 54 238 238 202
 202 114 114 114 114 114 114 12 12 12 12 20 20 20 20 20 216 216 216 115
 115 115 61 61 61 54 238 238 202 202 114 114 114 114 114 114 68 68 118 20
 20 20 20 20 216 216 216 115 115 115 115 61 61 61 61 109 109 234 234 234
 234 234 114 114 68 68 68 118 68 20 20 20 216 216 216 216 115 115 115 115
 61 61 61 61 109 109 234 234 234 234 234 234 234 68 68 68 68 68 68 137
 216 216 216 216 53 115 115 115 115 61 61 61 61 109 109 234 234 234 234 234
 234 234 68 68 68 68 68 68 137 53 53 53 53 53 115 115 115 115 61 61
 61 61 109 109 109 109 234 234 234 234 125 125 125 68 68 68 68 181 181 53
 53 53 115 115 115 115 206 206 206 206 206 109 109 109 109 109 109 109 125 125
 125 125 125 68 68 181 181 181 181 181 53 115 115 115 206 206 206 206 206 109
 109 109 109 109 109 109 109 125 125 125 125 125 125 182 181 181 181 181 181 181
 127 127 206 206 206 206 206 206 206 109 109 109 109 109 109 161 125 125 125 125
 125 125 182 182 181 181 181 181 181 127 127 127 127 206 206 206 206 109 109 109
 109 109 109 109 161 161 161 125 125 125 182 182 182 182 181 181 181 127 127 127
 127 127 206 206 206 206 134 109 109 109 109 109 161 161 161 161 161 161 125 182
 182 182 182 157 157 157 127 127 127 127 127 15 15 15 134 134 134 134 134 1
 1 161 161 161 161 161 161 161 182 182 182 157 157 157 157 127 127 127 15 15
 15 15 15 134 134 134 134 134 134 134 161 161 161 161 161 161 161 119 119 157
 157 157 157 157 127 127 15 15 15 15 15 15 134 134 134 134 134 134 55 161
 161 161 161 161 161 119 119 119 119 157 157 157 157 157 127 15 15 15 15 15
 15 108 108 108 108 108 108 108 55 161 161 161 161 71 71 119 119 119 119 157
 157 157 157 127 15 15 15 15 15 108 108 108 108 108 108 108 108 49 49 49
 49 71 71 71 71 119 119 119 211 211 211 157 200 200 200 200 200 200 108 108
 212 212 212 108 108 49 49 49 49 49 71 71 71 71 119 119 119 211 237 211
 211 200 200 200 200 200 200 212 212 212 212 212 212 49 49 49 49 49 49 49
 71 71 71 71 119 119 211 237 211 211 200 200 200 200 200 200 212 212 212 212
 212 212 49 49 49 49 49 49 49 71 71 71 71 71 119 211 237 151 151 151
 200 200 200 200 200 212 212 212 212 212 212 49 49 49 49 49 49 49 71 71
 71 71 71 119 151 151 151 151 151 151 200 200 200 200 54 212 212 212 212 19
 19 19 49 49 49 49 49 49 71 71 71 52 52 151 151 151 151 151 151 175
 175 200 54 54 54 238 238 19 19 19 19 49 49 49 49 49 49 71 52 52
 52 52 52 151 151 151 175 175 175 175 175 54 54 54 238 238 238 19 19 19
 49 49 215 215 215 215 52 52 52 52 52 52 151 151 151 175 175 175 175 175
 54 54 54 238 238 238 238 19 19 49 215 215 215 215 215 52 52 52 52 52
 52 151 151 175 175 175 175 175 175 54 54 54 238 238 238 238 238 19 49 215
 215 215 215 215 52 52 52 52 52 52 52 175 175 175 175 175 175 175 54 54
 54 238 238 238 238 238 114 114 114 114 215 215 215 12 12 52 52 52 52 52
 175 175 175 175 175 175 175 54 54 54 238 238 238 238 238 114 114 114 114 114
 215 12 12 12 12 12 52 52 175 175 175 175 175 175 175 175 54 54 54 54
 238 238 238 238 114 114 114 114 114 114 12 12 12 12 12 12 20 20 175 175
 175 175 175 175 175 54 54 54 54 238 238 238 114 114 114 114 114 114 114 12
 12 12 12 12 20 20 20 20 175 216 175 175 175 61 61 54 54 54 238 238
 238 114 114 114 114 114 114 12 12 12 12 12 20 20 20 20 20 216 216 216
 115 115 61 61 61 61 54 238 238 238 234 114 114 114 114 114 118 118 118 118
 118 118 20 20 20 216 216 216 115 115 115 61 61 61 61 61 61 109 234 234
 234 234 234 114 118 118 118 118 118 118 118 20 20 216 216 216 216 115 115 115
 61 61 61 61 61 61 109 234 234 234 234 234 234 68 68 68 68 68 68 68
 137 137 216 216 216 53 115 115 115 61 61 61 61 61 109 109 109 234 234 234
 234 234 68 68 68 68 68 68 68 137 137 53 53 53 53 115 115 115 61 61
 61 61 61 109 109 109 109 234 234 234 234 125 125 125 68 68 68 68 181 137
 53 53 53 115 115 115 115 61 61 61 61 61 28 28 28 28 28 28 28 125
 125 125 125 125 68 68 181 181 181 181 181 181 65 65 115 206 206 206 206 206
 28 28 28 28 28 28 28 28 125 125 125 125 125 125 182 181 181 181 181 181
 181 127 127 127 206 206 206 206 206 28 28 28 28 28 28 28 161 125 125 125
 125 125 125 182 182 181 181 181 181 181 127 127 127 127 206 206 206 206 28 28
 28 28 28 28 161 161 161 161 125 125 125 182 182 182 182 181 181 181 127 127
 127 127 127 127 206 206 134 134 28 1 1 1 1 161 161 161 161 161 161 195
 182 182 182 182 181 181 181 127 127 127 127 15 15 15 15 134 134 134 134 1
 1 1 161 161 161 161 161 161 195 195 182 182 182 157 157 157 127 127 127 15
 15 15 15 15 134 134 134 134 134 1 1 161 161 161 161 161 161 195 195 119
 157 157 157 157 157 127 127 127 15 15 15 15 15 134 134 134 134 134 134 134
 161 161 161 161 161 161 195 119 119 119 157 157 157 157 157 127 15 15 15 15
 15 108 108 108 108 108 108 108 108 72 72 72 72 72 71 71 71 119 119 119
 157 157 157 157 200 200 200 200 200 15 108 108 108 108 108 108 108 108 49 72
 72 72 72 71 71 71 71 119 119 211 157 157 157 200 200 200 200 200 200 108
 108 212 212 108 108 108 49 49 49 49 72 72 71 71 71 71 119 119 119 237
 211 211 200 200 200 200 200 200 212 212 212 212 212 212 212 49 49 49 49 49
 49 71 71 71 71 71 119 119 237 211 151 200 200 200 200 200 200 212 212 212
 212 212 212 49 49 49 49 49 49 49 71 71 71 71 71 71 119 151 151 151
 151 200 200 200 200 200 212 212 212 212 212 212 49 49 49 49 49 49 49 71
 71 71 71 71 71 151 151 151 151 151 151 200 200 200 200 212 212 212 212 212
 19 19 19 49 49 49 49 49 49 71 71 71 71 151 151 151 151 151 151 151
 175 175 200 54 54 54 212 212 21 19 19 19 19 49 49 49 49 49 71 52
 52 52 52 151 151 151 151 175 175 175 175 175 54 54 54 238 238 21 21 19
 19 19 49 215 215 215 188 188 52 52 52 52 52 151 151 151 175 175 175 175
 175 54 54 54 238 238 21 21 21 19 49 215 215 215 215 188 188 52 52 52
 52 52 151 151 175 175 175 175 175 175 54 54 54 238 238 238 21 21 21 49
 215 215 215 215 188 188 52 52 52 52 52 151 175 175 175 175 175 175 175 54
 54 54 238 238 238 238 238 114 114 114 215 215 215 12 12 12 12 52 52 52
 175 175 175 175 175 175 175 175 54 54 54 238 238 238 238 238 114 114 114 114
 114 215 12 12 12 12 12 52 52 175 175 175 175 175 175 175 175 54 54 54
 238 238 238 238 114 114 114 114 114 114 114 12 12 12 12 12 12 20 20 175
 175 175 175 175 175 175 54 54 54 54 238 238 132 114 114 114 114 114 114 12
 12 12 12 12 12 20 20 20 20 175 216 175 175 175 61 61 61 54 54 238
 238 132 132 114 114 114 114 114 12 12 12 12 12 12 20 20 20 20 216 216
 216 115 61 61 61 61 61 54 132 132 132 165 165 114 114 114 118 118 118 118
 118 118 118 20 20 20 216 216 216 115 115 61 61 61 61 61 61 61 27 165
 165 165 165 165 114 118 118 118 118 118 118 118 137 137 216 216 216 216 115 115
 61 61 61 61 61 61 61 165 165 165 165 165 165 165 68 68 68 68 68 68
 68 137 137 137 216 216 53 115 115 61 61 61 61 61 61 109 28 28 165 165
 165 165 165 68 68 68 68 68 68 68 137 137 137 53 216 115 115 115 61 61
 61 61 61 61 109 28 28 28 165 165 165 125 125 125 125 68 68 68 68 137
 137 137 181 53 65 65 65 115 61 61 61 61 61 28 28 28 28 165 165 165
 125 125 125 125 125 68 68 181 181 181 181 181 181 65 65 65 65 206 206 206
 61 28 28 28 28 28 28 165 101 125 125 125 125 125 125 182 181 181 181 181
 181 181 65 65 65 65 206 206 206 206 28 28 28 28 28 28 28 101 125 125
 125 125 125 125 182 182 181 181 181 181 181 127 65 127 127 206 206 206 206 28
 28 28 28 28 28 161 161 161 161 125 125 125 195 182 182 182 181 181 181 181
 127 127 127 127 205 205 205 134 134 1 1 1 1 1 161 161 161 161 161 195
 195 195 182 182 182 181 181 181 127 127 127 127 15 15 205 205 134 134 134 1
 1 1 1 161 161 161 161 161 195 195 195 182 182 182 157 157 199 199 127 127
 15 15 15 15 134 134 134 134 134 1 1 1 161 161 161 161 161 195 195 195
 195 157 157 157 157 199 199 199 127 15 15 15 15 134 134 134 134 134 134 1
 213 161 161 161 161 161 195 195 195 119 119 157 157 157 199 199 199 15 15 15
 15 15 108 108 108 108 108 108 108 108 72 72 72 72 72 72 71 71 71 119
 119 157 157 199 199 199 200 200 200 200 200 108 108 108 108 108 108 108 108 72
 72 72 72 72 72 71 71 71 119 119 211 157 199 199 200 200 200 200 200 200
 108 108 212 108 108 108 108 49 49 72 72 72 72 71 71 71 71 71 119 119
 237 199 199 183 183 183 200 200 200 212 212 212 212 212 212 212 49 49 49 49
 72 72 71 71 71 71 71 71 119 237 151 151 183 183 183 200 200 200 212 212
 212 212 212 212 49 49 49 49 49 49 49 71 71 71 71 71 71 71 151 151
 151 210 183 200 200 200 200 212 212 212 212 212 212 49 49 49 49 49 49 49
 71 71 71 71 71 71 151 151 151 151 151 210 200 200 200 200 212 212 212 212
 212 19 19 19 49 49 49 49 49 49 71 71 71 71 233 151 151 151 151 151
 151 175 149 149 149 212 212 21 21 21 21 19 19 19 49 49 49 49 188 230
 230 233 233 233 151 151 151 151 175 175 175 175 175 54 54 60 21 21 21 21
 21 19 19 49 215 215 215 188 188 230 233 233 233 233 151 151 151 175 175 175
 175 175 54 54 60 60 21 21 21 21 21 49 215 215 215 188 188 188 230 233
 233 233 233 151 151 175 175 175 175 175 175 54 54 60 60 60 21 21 21 21
 49 215 215 215 188 188 188 230 233 233 233 233 151 175 175 175 175 175 175 175
 54 54 60 60 60 238 21 21 21 114 215 215 215 188 188 230 12 12 233 233
 233 175 175 175 175 175 175 175 175 54 54 60 60 60 238 238 21 114 114 114
 114 215 188 12 12 12 12 12 233 233 175 175 175 175 175 175 175 175 54 54
 60 60 238 238 132 132 114 114 114 114 114 12 12 12 12 12 12 12 150 150
 175 175 150 175 175 175 175 54 54 26 26 26 132 132 132 132 114 114 114 114
 12 12 12 12 12 12 12 150 150 150 150 150 150 175 175 61 61 61 26 26
 132 132 132 132 132 36 114 36 36 90 12 12 12 12 12 20 150 150 150 150
 150 150 61 61 61 61 61 61 132 132 132 132 165 165 165 36 36 36 90 118
 118 118 118 118 150 150 150 150 150 150 150 61 61 61 61 61 61 61 27 27
 165 165 165 165 165 36 118 118 118 118 118 118 118 137 150 150 150 150 216 115
 115 61 61 61 61 61 61 61 165 165 165 165 165 165 165 68 68 68 68 68
 68 68 137 137 137 137 150 65 115 115 61 61 61 61 61 61 61 165 165 165
 165 165 165 165 165 68 68 68 68 68 68 137 137 137 137 216 65 115 115 61
 61 61 61 61 61 28 28 28 165 165 165 165 165 125 125 125 68 68 68 68
 137 137 137 181 181 65 65 65 65 61 61 61 61 61 28 28 28 165 165 101
 101 101 125 125 125 125 68 68 181 181 181 181 181 65 65 65 65 65 61 61
 61 61 28 28 28 28 28 101 101 101 101 125 125 125 125 125 182 181 181 181
 181 181 65 65 65 65 65 65 205 205 205 28 28 28 28 28 101 101 101 101
 125 125 125 125 195 182 182 181 181 181 181 65 65 65 65 65 205 205 205 205
 1 1 1 1 28 101 101 101 161 195 195 195 195 195 182 182 182 181 181 181
 65 65 65 65 205 205 205 205 205 134 1 1 1 1 1 161 161 161 195 195
 195 195 195 195 182 182 181 181 199 199 199 127 127 155 155 205 205 205 134 1
 1 1 1 1 1 161 161 161 195 195 195 195 195 182 182 199 199 199 199 199
 199 15 155 155 155 155 134 134 134 1 1 1 1 1 161 161 161 195 195 195
 195 195 195 199 199 199 199 199 199 199 15 15 155 155 155 134 134 134 134 213
 213 213 213 72 72 72 195 195 195 195 195 119 199 199 199 199 199 199 199 23
 23 23 23 23 108 108 108 108 213 213 213 72 72 72 72 72 72 195 195 71
 119 119 199 199 199 199 199 183 183 183 23 23 23 108 108 108 108 108 108 108
 72 72 72 72 72 72 71 139 71 71 119 199 199 199 199 183 183 183 183 183
 23 23 108 212 108 108 108 108 49 72 72 72 72 72 72 139 139 139 71 119
 199 199 199 199 210 183 183 183 183 183 23 212 212 212 212 212 212 49 49 49
 72 72 72 139 139 139 139 139 71 119 199 199 210 210 210 183 183 183 183 183
 212 212 212 212 212 97 97 49 49 49 49 49 71 139 139 139 71 71 71 151
 151 210 210 210 149 149 149 149 149 212 212 212 212 212 97 97 49 49 49 49
 49 71 71 139 71 71 71 151 151 151 151 210 210 149 149 149 149 149 212 212
 212 212 21 19 49 49 49 49 49 49 49 230 230 230 230 233 151 151 151 151
 151 210 149 149 149 149 149 60 60 21 21 21 19 19 49 49 49 49 188 188
 230 230 230 233 233 151 151 151 151 175 175 175 149 149 149 60 60 60 21 21
 21 21 19 49 49 49 215 188 188 188 230 233 233 233 233 194 194 194 175 175
 175 175 175 60 60 60 60 21 21 21 21 21 49 215 215 215 188 188 188 230
 233 233 233 233 194 194 194 175 175 175 175 175 60 60 60 60 60 21 21 21
 21 21 215 215 188 188 188 188 230 233 233 233 233 194 194 194 175 175 175 175
 175 60 60 60 60 60 60 21 21 21 21 215 215 188 188 188 230 230 230 233
 233 233 194 194 175 175 175 175 175 175 60 60 60 60 60 60 132 132 132 36
 36 36 188 188 12 12 12 12 12 233 150 150 175 175 175 175 175 175 175 60
 60 60 60 26 26 132 132 132 36 36 36 36 90 12 12 12 12 12 150 150
 150 150 150 150 150 175 175 175 60 60 26 26 26 132 132 132 132 36 36 36
 36 90 90 12 12 12 12 150 150 150 150 150 150 150 150 150 61 61 61 26
 26 132 132 132 132 132 36 36 36 36 90 90 90 12 12 12 150 150 150 150
 150 150 150 150 61 61 61 61 61 132 132 132 132 132 132 36 36 36 36 90
 90 90 118 118 150 150 150 150 150 150 150 150 61 61 61 61 61 61 61 27
 27 27 27 165 165 36 36 36 90 118 118 118 118 118 150 150 150 150 150 150
 150 61 61 61 61 61 61 61 27 27 27 165 165 165 165 165 165 68 68 68
 68 68 68 137 150 150 150 150 65 65 65 61 61 61 61 61 61 27 27 165
 165 165 165 165 165 165 68 68 68 68 68 68 137 137 137 137 150 65 65 65
 61 61 61 61 61 61 28 28 165 165 165 165 165 165 125 125 125 68 68 68
 68 181 181 181 181 181 65 65 65 65 61 61 61 61 73 171 171 171 171 101
 101 101 101 101 196 196 196 196 68 181 181 181 181 181 65 65 65 65 65 65
 61 61 73 73 171 171 171 171 101 101 101 101 101 196 196 196 196 196 181 181
 181 181 181 65 65 65 65 65 65 205 205 205 73 171 171 171 171 101 101 101
 101 101 196 196 196 195 195 182 181 181 181 181 65 65 65 65 65 205 205 205
 205 73 73 1 1 171 101 101 101 101 195 195 195 195 195 195 182 182 181 181
 65 65 65 65 65 205 205 205 205 205 205 1 1 1 1 1 101 101 195 195
 195 195 195 195 195 182 182 199 199 199 65 199 65 205 205 205 205 205 205 205
 1 1 1 1 1 1 195 195 195 195 195 195 195 195 195 199 199 199 199 199
 199 199 205 205 205 155 155 205 134 213 213 213 213 213 213 195 195 195 195 195
 195 195 195 195 199 199 199 199 199 199 199 199 205 205 205 155 205 134 213 213
 213 213 213 213 72 72 195 195 195 195 195 195 195 199 199 199 199 199 199 199
 23 23 23 23 23 23 108 213 213 213 213 213 213 72 72 72 72 195 195 195
 195 195 199 199 199 199 199 199 199 23 23 23 23 23 23 108 108 213 213 213
 213 72 72 72 72 72 72 195 139 139 139 199 199 199 199 199 199 183 183 183
 23 23 23 23 212 108 108 108 213 97 72 72 72 72 72 72 139 139 139 139
 199 199 199 199 199 210 231 183 183 183 23 23 23 212 212 212 212 97 97 97
 97 72 72 72 139 139 139 139 139 139 199 199 210 210 210 210 149 149 149 149
 23 212 212 212 212 212 97 97 97 97 95 95 95 95 139 139 139 139 139 139
 210 210 210 210 210 149 149 149 149 149 198 212 212 212 97 97 97 97 97 95
 95 95 95 139 139 139 139 92 92 151 210 210 231 210 149 149 149 149 149 198
 198 198 21 97 97 97 97 97 95 95 95 230 230 230 230 230 230 92 151 151
 210 231 210 149 149 149 149 149 60 60 21 21 21 97 97 97 49 49 95 230
 230 230 230 230 230 230 194 194 194 194 194 210 149 149 149 149 60 60 60 21
 21 21 21 21 49 49 49 188 188 188 230 230 230 233 233 194 194 194 194 194
 175 175 175 175 60 60 60 60 60 21 21 21 21 21 215 215 188 188 188 230
 230 230 233 233 233 194 194 194 194 175 175 175 60 60 60 60 60 60 21 21
 21 21 21 215 215 188 188 188 230 230 230 233 233 233 194 194 194 175 175 175
 175 60 60 60 60 60 60 60 21 21 21 21 36 215 188 230 230 230 230 230
 230 233 233 194 194 194 150 175 175 175 175 60 60 60 60 60 26 132 132 132
 36 36 36 168 230 230 230 230 230 230 233 150 150 150 150 150 150 175 175 60
 60 60 60 26 26 26 132 132 132 36 36 36 36 90 90 90 90 12 230 150
 150 150 150 150 150 150 150 150 177 60 60 26 26 26 132 132 132 132 36 36
 36 36 90 90 90 90 12 150 150 150 150 150 150 150 150 150 150 177 177 60
 26 26 132 132 132 132 132 36 36 36 36 90 90 90 90 90 150 150 150 150
 150 150 150 150 150 150 61 61 61 26 26 132 132 132 132 132 36 36 36 36
 90 90 90 90 90 150 150 150 150 150 150 150 150 150 61 61 61 61 61 27
 27 27 27 27 27 36 36 36 36 90 90 90 90 90 150 150 150 150 150 150
 150 65 65 61 61 61 61 61 27 27 27 27 27 165 165 165 36 36 90 90
 68 68 68 68 150 150 150 150 150 65 65 65 61 61 61 61 61 61 27 27
 27 165 165 165 165 165 196 196 68 68 68 68 68 34 34 34 34 34 65 65
 65 65 61 61 61 61 61 27 27 165 165 165 165 101 101 196 196 196 196 68
 68 68 181 181 34 34 34 65 65 65 65 65 61 61 73 73 73 171 171 171
 101 101 101 101 101 196 196 196 196 196 181 181 34 34 34 65 65 65 65 65
 10 10 73 73 73 73 171 171 171 101 101 101 101 101 196 196 196 196 174 174
 181 181 34 34 65 65 65 65 10 10 10 205 73 73 73 73 171 171 101 101
 101 101 101 196 196 196 196 174 174 181 181 181 65 65 65 65 65 10 10 205
 205 205 73 73 73 73 73 101 101 101 101 195 195 195 195 195 174 174 40 40
 40 65 65 65 65 10 205 205 205 205 205 205 73 73 73 73 101 101 101 195
 195 195 195 195 195 174 174 40 40 40 40 65 199 199 10 205 205 155 205 205
 205 213 213 213 213 213 213 195 195 195 195 195 195 195 195 195 40 40 199 199
 199 199 199 199 205 205 205 205 205 205 213 213 213 213 213 213 195 195 195 195
 195 195 195 195 195 199 199 199 199 199 199 199 199 205 205 205 205 205 213 213
 213 213 213 213 213 195 195 195 195 195 195 195 195 195 199 199 199 199 199 199
 199 199 23 23 23 23 23 23 213 213 213 213 213 213 72 72 72 195 195 195
 195 195 199 199 199 199 199 199 199 199 23 23 23 23 23 23 108 213 213 213
 213 213 72 72 72 72 72 195 195 195 139 139 199 199 199 199 199 199 149 149
 23 23 23 23 23 23 213 213 213 213 97 97 72 72 72 72 72 139 139 139
 139 32 199 199 199 199 210 210 149 149 149 23 23 23 198 198 198 198 97 97
 97 97 95 95 95 139 139 139 139 139 139 113 113 210 210 210 210 149 149 149
 149 23 198 198 198 198 198 97 97 97 97 95 95 95 95 139 139 139 139 92
 92 210 210 210 210 210 149 149 149 149 149 198 198 198 198 198 97 97 97 97
 95 95 95 95 139 139 92 92 92 92 92 210 210 210 210 149 149 149 149 149
 198 198 198 198 198 97 97 97 97 95 95 95 230 230 230 230 92 92 92 92
 210 210 231 210 149 149 149 149 149 60 198 198 21 21 190 190 97 97 95 95
 230 230 230 230 230 92 92 92 194 194 194 194 210 149 149 149 149 60 60 60
 21 21 21 21 190 190 97 95 230 230 230 230 230 230 230 230 194 194 194 194
 194 194 149 149 149 60 60 60 60 60 21 21 21 21 21 97 230 230 230 230
 230 230 230 230 230 194 194 194 194 194 175 175 175 60 60 60 60 60 60 60
 21 21 21 21 168 230 230 230 230 230 230 230 230 230 194 194 194 194 175 175
 175 175 60 60 60 60 60 60 60 60 21 236 236 168 168 168 230 230 230 230
 230 230 230 194 194 194 194 150 150 175 177 177 60 60 60 60 26 26 26 132
 236 236 168 168 168 168 230 230 230 230 230 230 150 150 150 150 150 150 150 177
 177 60 60 60 26 26 26 132 132 236 36 36 36 168 168 90 90 45 45 230
 150 150 150 150 150 150 150 150 177 177 177 60 26 26 26 132 132 132 132 36
 36 36 36 90 90 90 45 45 45 150 150 150 150 150 150 150 150 150 177 177
 191 191 191 132 132 132 132 132 36 36 36 36 90 90 90 45 45 45 150 150
 150 150 150 150 150 150 150 177 177 191 191 191 132 132 132 132 132 36 36 36
 90 90 90 90 45 45 45 150 150 150 150 150 150 150 150 150 61 61 61 191
 191 27 27 27 27 27 36 36 36 90 90 90 90 45 45 150 150 150 150 150
 150 34 34 65 65 61 61 61 61 27 27 27 27 27 27 165 165 36 90 90
 90 90 45 68 34 34 34 34 34 34 34 65 65 65 61 61 61 61 27 27
 27 27 27 165 165 165 101 196 196 196 196 196 68 34 34 34 34 34 34 65
 65 65 65 65 61 61 61 184 27 27 171 165 165 101 101 101 196 196 196 196
 196 68 34 34 34 34 34 34 65 65 65 65 65 147 147 147 73 73 73 171
 171 101 101 101 101 196 196 196 196 196 174 174 34 34 34 34 34 65 65 65
 65 10 10 159 159 73 73 73 171 171 101 101 101 101 101 196 196 196 174 174
 174 34 34 34 34 65 65 65 10 10 10 10 159 159 73 73 73 73 73 101
 101 101 101 101 196 196 174 174 174 174 174 40 34 34 65 65 65 10 10 10
 10 205 159 73 73 73 73 73 101 101 101 101 195 195 195 174 174 174 174 40
 40 40 40 65 65 10 10 10 155 155 205 205 73 73 73 73 73 73 101 101
 195 195 195 195 195 174 174 174 40 40 40 40 65 199 10 10 205 205 205 205
 205 205 213 213 213 213 213 213 195 195 195 195 195 195 195 174 174 40 40 40
 199 199 199 199 205 205 205 205 205 205 205 213 213 213 213 213 213 195 195 195
 195 195 195 195 195 195 40 40 199 199 199 199 199 199 205 205 205 205 205 213
 213 213 213 213 213 213 83 83 83 195 195 195 195 195 199 199 199 199 199 199
 199 199 23 23 23 23 23 23 23 213 213 213 213 213 213 83 83 83 83 195
 195 195 195 32 32 32 199 199 199 199 199 23 23 23 23 23 23 23 213 213
 213 213 213 83 83 83 83 83 195 195 195 195 32 32 32 32 199 199 199 210
 149 149 23 23 23 23 23 198 213 213 213 97 97 83 83 83 83 195 195 139
 139 32 32 32 32 199 199 210 210 149 149 149 23 23 23 198 198 198 198 97
 97 97 97 95 95 95 139 139 139 139 92 113 113 113 113 210 210 210 149 149
 149 149 23 198 198 198 198 198 97 97 97 97 95 95 95 95 139 139 92 92
 92 113 113 210 210 210 210 149 149 149 149 149 198 198 198 198 198 97 97 97
 97 95 95 95 95 70 70 92 92 92 92 92 210 210 210 210 149 149 149 149
 149 198 198 198 198 198 190 190 97 97 95 95 95 30 70 70 92 92 92 92
 92 210 210 210 231 149 149 149 149 149 198 198 198 198 190 190 190 190 190 95
 95 30 230 70 70 92 92 92 92 194 194 194 194 231 149 149 149 149 60 60
 60 110 110 110 190 190 190 190 95 95 230 230 230 230 230 92 92 92 194 194
 194 194 194 149 149 149 60 60 60 60 60 110 110 190 190 190 190 230 230 230
 230 230 230 230 230 230 8 8 8 194 8 8 175 177 177 60 60 60 60 60
 60 110 21 190 190 168 168 230 230 230 230 230 230 230 230 8 8 8 8 8
 8 177 177 177 60 60 60 60 60 60 60 236 236 236 168 168 168 230 230 230
 230 230 230 230 8 8 8 8 150 150 150 177 177 177 177 60 26 26 26 132
 236 236 236 168 168 168 168 230 230 230 230 230 230 150 150 150 150 150 150 150
 177 177 177 177 26 26 26 26 132 236 236 236 36 168 168 168 90 90 45 45
 45 150 150 150 150 150 150 150 150 177 177 177 177 191 191 191 132 132 132 236
 36 36 36 168 168 90 45 45 45 45 150 150 150 150 150 150 150 150 177 177
 177 177 191 191 191 132 132 132 132 36 36 36 36 90 90 45 45 45 45 150
 150 150 150 150 150 150 150 177 177 177 191 191 191 191 132 132 132 132 36 36
 36 90 90 90 90 45 45 45 150 150 150 150 150 34 34 34 34 177 177 191
 191 191 191 27 27 27 27 36 36 36 90 90 90 90 45 45 45 150 150 150
 34 34 34 34 34 34 184 184 184 184 191 27 27 27 27 27 165 36 36 90
 90 90 90 45 45 34 34 34 34 34 34 34 65 65 65 65 184 184 184 184
 27 27 27 27 27 165 101 101 196 196 196 196 45 34 34 34 34 34 34 34
 65 65 65 65 65 184 184 184 184 142 27 171 27 165 101 101 101 196 196 196
 196 196 34 34 34 34 34 34 34 65 65 65 65 147 147 147 147 73 73 73
 73 73 101 101 101 101 196 196 196 196 196 174 174 34 34 34 34 34 65 65
 65 10 147 147 147 159 73 73 73 73 73 101 101 101 101 101 196 196 174 174
 174 174 34 34 34 34 65 65 65 10 10 10 147 159 159 73 73 73 73 73
 73 101 101 101 195 195 195 174 174 174 174 201 201 201 34 65 65 10 10 10
 10 10 159 159 159 73 73 73 73 73 101 101 101 195 195 195 174 174 174 174
 40 40 201 201 65 214 214 10 10 10 155 159 159 159 73 73 73 73 73 101
 195 195 195 195 195 174 174 174 174 40 40 40 40 199 214 214 214 10 205 205
 155 159 159 73 213 213 135 135 135 195 195 195 195 195 195 174 174 40 40 40
 40 199 199 214 214 214 205 205 205 205 205 205 213 213 213 135 135 135 83 83
 83 195 195 195 195 195 40 40 40 40 199 199 199 199 214 205 205 205 205 205
 213 213 213 213 135 135 135 83 83 83 83 195 195 195 195 40 40 40 199 199
 199 199 199 82 23 23 23 23 23 23 213 213 213 135 135 135 83 83 83 83
 83 195 195 195 32 32 32 32 199 199 199 82 82 23 23 23 23 106 106 213
 213 213 135 135 135 83 83 83 83 83 195 195 32 32 32 32 32 199 199 82
 82 149 149 23 23 106 106 106 106 198 213 135 97 83 83 83 83 83 83 195