# vtk DataFile Version 2.0
Data set from ImportExport Version 6.5.171.b0b162591
ASCII

DATASET RECTILINEAR_GRID
DIMENSIONS 30 30 30
X_COORDINATES 30 float
-1.250000 1.250000 3.750000 6.250000 8.750000 11.250000 13.750000 16.250000 18.750000 21.250000 23.750000 26.250000 28.750000 31.250000 33.750000 36.250000 38.750000 41.250000 43.750000 46.250000 48.750000 
51.250000 53.750000 56.250000 58.750000 61.250000 63.750000 66.250000 68.750000 71.250000 
Y_COORDINATES 30 float
-1.250000 1.250000 3.750000 6.250000 8.750000 11.250000 13.750000 16.250000 18.750000 21.250000 23.750000 26.250000 28.750000 31.250000 33.750000 36.250000 38.750000 41.250000 43.750000 46.250000 48.750000 
51.250000 53.750000 56.250000 58.750000 61.250000 63.750000 66.250000 68.750000 71.250000 
Z_COORDINATES 30 float
-1.250000 1.250000 3.750000 6.250000 8.750000 11.250000 13.750000 16.250000 18.750000 21.250000 23.750000 26.250000 28.750000 31.250000 33.750000 36.250000 38.750000 41.250000 43.750000 46.250000 48.750000 
51.250000 53.750000 56.250000 58.750000 61.250000 63.750000 66.250000 68.750000 71.250000 
CELL_DATA 24389
SCALARS FeatureIds int 1
LOOKUP_TABLE default
 86 38 38 38 38 226 226 225 225 225 225 225 231 231 231 231 231 119 119 119
 82 82 82 86 86 86 86 86 86 86 38 38 38 38 226 226 226 226 226 225
 129 129 129 129 129 129 204 82 82 82 82 82 82 86 86 86 86 86 38 38
 38 38 38 226 226 226 226 226 226 129 129 129 129 129 129 204 123 82 82 82
 82 82 86 86 86 86 86 38 38 38 38 38 226 226 226 226 226 226 129 129
 129 129 129 204 204 204 82 82 82 82 82 82 86 86 86 38 38 38 38 38
 38 226 226 226 226 226 226 129 129 129 129 129 204 204 204 82 82 82 82 82
 63 63 63 86 38 38 38 38 38 109 109 226 226 226 226 226 129 129 129 129
 62 204 204 204 204 82 82 82 63 63 63 63 6 6 6 38 38 102 102 109
 226 226 226 226 52 52 129 62 62 62 62 204 204 204 82 82 82 63 63 63
 6 6 6 6 102 102 102 102 102 102 160 160 52 52 52 52 62 62 62 62
 62 204 79 79 79 79 79 6 6 6 6 6 6 102 102 102 102 102 160 160
 160 52 52 52 52 52 62 62 62 62 62 79 79 79 79 130 130 6 6 6
 6 6 102 102 102 102 102 160 160 160 52 52 52 52 52 62 62 62 62 62
 79 79 79 79 130 130 130 130 6 6 78 102 102 102 102 102 160 160 160 52
 52 52 52 98 98 98 62 62 81 81 79 79 79 130 130 130 78 78 78 78
 102 102 102 102 102 160 160 160 52 52 52 98 98 98 98 98 81 81 81 81
 81 130 130 130 130 78 78 78 78 184 184 184 184 102 160 160 160 52 52 101
 98 98 98 98 98 81 81 81 81 81 81 130 130 130 130 78 78 78 184 184
 184 184 184 118 118 118 127 127 127 127 127 98 98 81 81 81 81 81 81 81
 100 100 100 100 78 78 184 184 184 184 184 184 118 118 118 127 127 127 127 127
 127 98 81 81 81 81 81 81 81 100 100 100 100 100 78 24 184 184 184 184
 224 118 118 118 127 127 127 127 127 127 88 81 81 81 81 81 81 221 221 221
 221 221 221 221 24 24 184 224 224 224 224 224 118 127 127 127 127 127 127 88
 9 9 9 81 81 147 147 147 221 221 221 221 221 24 24 24 224 224 224 224
 224 224 127 127 127 127 88 88 9 9 9 9 9 81 147 147 147 147 221 221
 221 221 24 24 224 224 224 224 224 224 224 127 127 127 174 37 37 37 9 9
 9 9 9 147 147 147 147 221 221 221 221 149 149 149 149 149 55 55 55 55
 55 127 37 37 37 37 37 9 9 9 9 15 15 15 15 15 15 15 15 15
 149 149 149 149 149 55 55 55 55 96 96 37 37 37 37 37 37 9 9 15
 15 15 15 15 15 15 15 15 15 149 149 149 149 149 55 55 55 55 96 96
 96 96 37 37 37 37 22 22 15 15 15 15 15 15 15 15 15 15 149 149
 149 149 149 55 55 55 55 96 96 96 96 96 96 96 22 22 22 22 15 15
 15 15 15 137 137 137 137 149 149 122 122 122 55 55 55 55 96 96 96 96
 96 96 96 22 22 22 22 15 15 15 15 137 137 137 137 137 149 149 122 122
 122 122 55 55 225 96 96 96 96 96 96 96 22 22 119 119 22 15 15 15
 137 137 137 137 137 149 149 122 122 122 122 225 225 225 225 225 96 231 231 231
 231 231 119 119 119 119 119 15 237 237 237 237 237 237 194 149 122 122 122 225
 225 225 225 225 225 225 231 231 231 231 231 119 119 119 119 119 119 237 237 237
 237 237 237 194 194 122 122 225 225 225 225 225 225 225 225 231 231 231 231 231
 119 119 119 119 119 119 237 237 237 237 86 86 194 194 122 122 225 225 225 225
 225 225 225 225 231 231 231 231 231 119 119 119 119 119 119 119 86 86 86 86
 86 86 38 38 38 38 226 226 225 225 225 225 225 231 231 231 231 123 119 119
 119 233 233 10 86 86 86 86 86 86 86 38 38 38 38 226 226 226 226 226
 225 225 129 129 129 129 123 123 233 233 233 233 82 86 86 86 86 86 86 38
 38 38 38 38 226 226 226 226 226 226 129 129 129 129 129 123 123 123 233 233
 82 82 82 86 86 86 86 86 38 38 38 38 226 226 226 169 226 226 226 129
 129 129 129 129 123 123 123 123 82 82 82 82 82 86 86 86 86 38 38 38
 38 226 226 226 226 226 226 226 129 129 129 129 129 204 204 204 204 82 82 82
 82 63 63 63 86 38 38 38 38 38 226 226 226 226 226 226 226 129 129 129
 129 129 204 204 204 204 82 82 82 63 63 6 6 6 6 6 38 102 102 102
 226 226 226 226 226 52 52 129 62 62 62 204 204 204 204 79 79 79 79 6
 6 6 6 6 6 6 102 102 102 102 1 1 1 1 52 52 52 52 62 62
 62 204 204 79 79 79 79 79 6 6 6 6 6 6 102 102 102 102 102 1
 1 1 52 52 52 52 52 62 62 62 62 79 79 79 79 79 79 130 6 6
 6 6 78 102 102 102 102 102 1 1 1 52 52 52 52 52 62 62 62 62
 79 79 79 79 79 79 130 130 130 78 78 78 102 102 102 102 102 1 1 1
 52 52 52 52 52 98 98 62 217 79 79 79 79 79 130 130 130 130 78 78
 78 102 102 102 102 1 1 1 1 52 52 52 52 52 98 98 217 217 217 79
 79 79 79 130 130 130 78 78 78 78 102 102 102 102 1 1 1 1 52 52
 101 98 98 98 217 217 217 217 81 81 79 79 100 130 130 130 78 78 78 184
 184 184 184 184 118 118 118 127 127 127 127 127 98 217 217 217 217 81 81 81
 100 100 100 100 100 78 78 24 184 184 184 184 184 118 118 118 127 127 127 127
 127 127 217 217 217 217 81 81 81 100 100 100 100 100 100 78 24 24 24 184
 224 224 224 224 118 127 127 127 127 127 88 88 217 217 217 81 81 81 221 221
 221 221 221 221 24 24 24 24 224 224 224 224 224 224 127 127 127 127 88 88
 88 88 9 9 81 81 147 147 221 221 221 221 221 24 24 24 24 224 224 224
 224 224 224 127 127 127 88 88 88 88 9 9 9 9 81 147 147 221 221 221
 221 221 24 24 24 24 224 224 224 224 224 224 127 127 88 88 88 88 88 88
 9 9 9 15 15 15 15 15 221 221 221 24 24 149 149 149 149 224 224 224
 224 161 161 88 88 88 88 88 88 9 9 15 15 15 15 15 15 15 15 15
 24 149 149 149 149 149 149 55 55 55 161 161 161 161 161 37 37 37 22 22
 15 15 15 15 15 15 15 15 15 15 149 149 149 149 149 149 55 55 55 96
 96 96 96 96 37 37 22 22 22 22 15 15 15 15 15 15 15 15 15 149
 149 149 149 149 149 55 55 96 96 96 96 96 96 96 96 22 22 22 22 22
 15 15 15 15 15 15 15 15 122 122 122 122 122 122 55 55 96 96 96 96
 96 96 96 22 22 22 22 22 22 15 15 15 15 15 15 15 15 122 122 122
 122 122 122 122 225 225 96 96 96 96 96 96 22 22 22 22 22 22 15 15
 15 15 137 137 137 194 194 194 122 122 122 122 225 225 225 225 225 96 96 231
 231 231 119 119 119 119 119 119 119 15 237 237 237 237 194 194 194 122 122 122
 225 225 225 225 225 225 225 231 231 231 231 119 119 119 119 119 119 119 15 237
 237 237 237 86 194 194 194 122 225 225 225 225 225 225 225 225 231 231 231 231
 119 119 119 119 119 119 119 119 86 86 86 86 86 194 194 194 122 225 225 225
 225 225 225 225 225 231 231 231 231 231 119 119 119 119 119 119 119 86 86 86
 86 86 86 86 38 38 226 226 226 225 225 225 225 225 231 231 231 231 123 233
 233 233 233 233 10 10 86 86 86 86 86 86 38 38 38 226 226 226 226 226
 226 225 129 129 129 129 129 123 123 233 233 233 233 233 10 86 86 86 86 86
 86 38 38 38 226 226 226 226 226 226 226 129 129 129 129 129 123 123 123 233
 233 233 233 180 86 86 86 86 86 38 38 38 38 226 226 226 226 226 226 226
 129 129 129 129 129 123 123 123 123 233 233 180 180 180 86 86 86 86 38 38
 38 38 226 226 226 226 226 226 226 129 129 129 129 129 123 123 123 123 123 180
 180 180 180 6 86 86 38 6 38 38 220 220 226 226 226 226 226 226 129 129
 129 129 129 204 204 204 123 79 79 79 180 6 6 6 6 6 6 6 102 102
 102 1 1 1 1 1 52 52 129 129 129 62 204 204 204 79 79 79 79 79
 6 6 6 6 6 6 102 102 102 102 1 1 1 1 1 52 52 52 52 62
 62 204 204 204 79 79 79 79 79 6 6 6 6 6 6 102 102 102 102 1
 1 1 1 1 52 52 52 52 52 62 62 204 79 79 79 79 79 79 130 6
 6 6 6 78 102 102 102 102 1 1 1 1 1 52 52 52 52 52 62 62
 79 79 79 79 79 79 79 130 130 130 78 78 78 102 102 102 102 1 1 1
 1 1 52 52 52 52 52 217 217 217 79 79 79 79 79 79 130 130 130 78
 78 78 102 102 102 102 1 1 1 1 1 52 52 52 52 52 217 217 217 217
 79 79 79 79 130 130 130 78 78 78 78 102 102 102 102 1 1 1 1 1
 52 52 127 127 217 217 217 217 217 217 79 79 79 100 130 130 78 78 78 78
 24 184 184 184 1 1 1 1 127 127 127 127 127 217 217 217 217 217 217 81
 79 79 100 100 100 100 78 78 24 24 24 24 184 224 224 224 127 127 127 127
 127 127 217 217 217 217 217 217 217 80 100 100 100 100 100 100 78 24 24 24
 24 224 224 224 224 127 127 127 127 127 88 88 88 217 217 217 217 217 80 221
 221 221 221 221 221 24 24 24 24 224 224 224 224 224 224 127 127 127 88 88
 88 88 217 217 217 217 217 80 221 221 221 221 221 221 24 24 24 24 224 224
 224 224 224 224 127 127 88 88 88 88 88 88 88 9 11 11 15 147 68 68
 221 221 221 24 24 24 24 224 224 224 224 224 224 127 127 88 88 88 88 88
 88 9 9 11 11 15 15 15 68 68 68 148 24 24 149 149 149 149 224 224
 224 224 161 161 161 88 88 88 88 88 88 22 15 15 15 15 15 15 15 15
 148 148 149 149 149 149 149 149 55 55 161 161 161 161 161 161 88 88 88 22
 22 22 15 15 15 15 15 15 15 15 15 149 149 149 149 149 149 55 55 161
 161 161 161 161 161 161 88 22 22 22 22 22 15 15 15 15 15 15 15 15
 149 149 149 149 149 149 55 55 96 96 96 161 161 161 161 22 22 22 22 22
 22 15 15 15 15 15 15 15 15 122 122 122 122 122 149 149 55 96 96 96
 96 96 96 96 22 22 22 22 22 22 22 15 15 15 15 15 15 194 194 122
 122 122 122 122 122 225 225 96 96 96 96 96 96 22 22 22 22 22 22 22
 15 15 15 15 15 194 194 194 194 194 122 122 122 225 225 225 225 225 96 96
 231 231 231 119 119 119 119 119 119 119 182 182 182 237 194 194 194 194 194 122
 122 225 225 225 225 225 225 225 231 231 231 231 119 119 119 119 119 119 119 10
 10 10 237 194 194 194 194 194 194 194 225 225 225 225 225 225 225 231 231 231
 231 119 119 119 119 119 119 119 10 10 10 86 86 86 194 194 194 194 194 225
 225 225 225 225 225 225 231 231 231 231 119 119 119 119 119 119 119 10 10 86
 86 86 86 90 90 90 90 90 226 226 225 225 225 225 225 231 231 231 36 233
 233 233 233 233 233 10 10 10 86 86 86 86 90 90 90 90 226 226 226 226
 226 226 225 129 129 129 129 123 123 123 233 233 233 233 10 10 86 86 86 86
 86 86 90 90 90 226 226 226 226 226 226 226 129 129 129 129 123 123 123 123
 233 233 233 233 180 86 86 86 86 86 38 90 38 220 220 226 226 226 226 226
 226 129 129 129 129 123 123 123 123 123 233 233 180 180 180 86 86 86 86 38
 38 38 220 220 220 226 226 226 226 226 129 129 129 129 123 123 123 123 123 58
 180 180 180 180 180 6 6 59 6 38 220 220 220 220 220 226 226 226 226 129
 129 129 129 123 123 123 123 58 58 180 180 180 180 6 6 6 6 6 6 220
 220 220 220 220 1 1 1 1 19 129 129 129 62 204 204 204 58 79 79 180
 180 180 6 6 6 6 6 102 102 102 102 1 1 1 1 1 1 52 52 52
 62 62 204 204 17 79 79 79 79 79 79 6 6 6 6 6 102 102 102 102
 1 1 1 1 1 1 52 52 52 52 99 99 17 17 79 79 79 79 79 79
 6 6 6 6 78 102 102 102 102 1 1 1 1 1 52 52 52 52 52 99
 99 17 17 79 79 79 79 79 79 130 130 78 78 78 102 102 102 1 1 1
 1 1 1 1 52 52 52 52 99 217 17 17 79 79 79 79 79 130 130 78
 78 78 78 102 102 102 1 1 1 1 1 1 34 34 34 52 217 217 217 217
 217 79 79 79 79 79 130 130 78 78 78 114 114 102 102 1 1 1 1 1
 34 34 34 34 34 217 217 217 217 217 217 79 79 79 79 130 130 114 114 114
 114 114 24 24 1 1 1 1 34 34 34 34 127 88 217 217 217 217 217 217
 79 79 80 100 100 100 114 114 114 24 24 24 24 69 69 69 69 69 127 127
 127 127 88 88 217 217 217 217 217 217 80 80 80 100 100 114 114 114 24 24
 24 24 224 224 224 69 127 127 127 127 88 88 88 88 217 217 217 217 80 80
 80 80 80 221 221 114 114 24 24 24 24 224 224 224 224 69 127 127 88 88
 88 88 88 88 217 217 217 80 80 80 80 68 68 221 221 24 24 24 24 24
 224 224 224 224 224 88 88 88 88 88 88 88 88 88 217 11 11 11 80 68
 68 68 68 68 24 24 24 75 75 75 224 224 224 224 88 88 88 88 88 88
 88 88 88 11 11 11 11 11 68 68 68 68 148 24 75 75 75 75 75 75
 224 224 161 161 161 161 88 88 88 88 88 88 11 11 11 11 11 15 68 148
 148 148 148 75 75 75 75 149 149 149 149 161 161 161 161 161 161 88 88 88
 22 22 22 11 11 15 15 15 148 148 148 148 149 149 149 149 149 149 149 149
 161 161 161 161 161 161 161 22 22 22 22 22 22 15 15 15 15 15 15 15
 15 149 149 149 149 149 149 149 149 161 161 161 161 161 161 161 22 22 22 22
 22 22 22 15 15 15 15 15 15 194 194 194 194 122 149 149 149 171 171 171
 96 96 161 161 161 22 22 22 22 22 22 22 15 15 15 15 15 194 194 194
 194 194 194 194 194 171 171 171 171 96 96 96 96 96 22 22 22 22 22 22
 22 182 182 182 182 194 194 194 194 194 194 194 194 194 225 225 225 225 225 96
 96 231 231 36 36 119 119 119 119 119 182 182 182 182 182 194 194 194 194 194
 194 194 194 225 225 225 225 225 225 231 231 231 36 36 119 119 119 119 119 10
 10 10 10 10 194 194 194 194 194 194 194 225 225 225 225 225 225 225 231 231
 231 36 36 119 119 119 119 119 10 10 10 10 10 194 194 194 194 194 194 194
 225 225 225 225 225 225 225 231 231 231 36 36 119 119 119 119 119 10 10 10
 10 86 86 86 90 90 90 90 90 90 226 225 225 225 225 225 231 231 36 36
 36 36 233 233 233 10 10 10 10 10 86 86 90 90 90 90 90 90 226 226
 226 226 226 225 129 129 129 129 123 123 123 233 233 233 233 10 10 10 86 86
 86 90 90 90 90 90 220 226 226 226 226 226 30 129 129 129 129 123 123 123
 123 233 233 233 180 180 180 86 86 86 90 90 90 90 220 220 220 220 226 226
 226 30 129 129 129 129 123 123 123 123 123 233 180 180 180 180 180 59 59 59
 59 90 220 220 220 220 220 220 226 226 226 129 129 129 129 123 123 123 123 58
 58 180 180 180 180 180 59 59 59 59 59 220 220 220 220 220 220 226 226 19
 19 19 216 216 123 123 123 58 58 58 180 180 180 180 180 59 59 59 89 89
 220 220 220 220 220 220 1 1 19 19 19 216 216 216 123 204 58 58 58 180
 180 180 180 180 89 89 89 89 89 102 220 220 220 1 1 1 1 1 19 19
 216 216 216 99 17 17 17 79 79 79 180 180 89 89 89 89 89 102 102 102
 1 1 1 1 1 1 1 19 52 19 99 99 99 17 17 17 79 79 79 79
 79 89 89 89 89 78 102 102 102 1 1 1 1 1 1 1 52 52 52 99
 99 99 17 17 17 79 79 79 79 79 89 89 89 89 78 102 102 102 1 1
 1 1 1 1 1 52 52 99 99 99 99 17 17 17 79 79 79 79 79 130
 114 114 114 114 114 102 102 1 1 1 1 1 34 34 34 34 99 99 217 217
 217 217 17 79 79 79 79 130 114 114 114 114 114 114 102 102 1 1 1 1
 34 34 34 34 34 34 217 217 217 217 217 217 79 79 79 79 130 114 114 114
 114 114 114 24 24 69 69 69 69 34 34 34 34 34 88 217 217 217 217 217
 217 79 80 80 80 80 114 114 114 114 114 24 24 24 69 69 69 69 69 34
 34 34 88 88 217 217 217 217 217 217 217 80 80 80 80 114 114 114 114 24
 24 24 24 69 69 69 69 69 69 69 88 88 88 88 88 217 217 217 217 80
 80 80 80 80 80 114 114 114 24 24 24 24 69 69 69 69 69 69 69 88
 88 88 88 88 217 217 217 217 80 80 80 80 68 68 68 114 114 24 24 24
 75 75 75 69 69 69 69 88 88 88 88 88 88 88 88 11 11 11 11 80
 68 68 68 68 68 24 24 75 75 75 75 75 224 69 69 93 93 88 88 88
 88 88 88 88 11 11 11 11 11 68 68 68 148 148 148 75 75 75 75 75
 75 75 69 93 93 93 93 93 88 88 88 88 88 11 11 11 11 11 68 148
 148 148 148 148 75 75 75 75 75 75 75 75 93 93 93 93 93 93 88 88
 88 22 22 11 11 11 11 57 148 148 148 148 148 75 75 75 75 75 75 75
 93 93 93 93 93 93 93 93 22 22 22 22 22 22 11 57 57 57 148 148
 148 148 194 194 194 194 149 149 149 171 171 93 93 93 93 93 93 22 22 22
 22 22 22 22 57 57 57 57 148 148 194 194 194 194 194 194 149 171 171 171
 171 171 93 93 93 93 22 22 22 22 22 22 22 57 57 57 57 194 194 194
 194 194 194 194 194 194 171 171 171 171 171 171 96 93 93 22 22 22 22 22
 22 22 182 182 182 182 194 194 194 194 194 194 194 194 194 171 171 171 171 171
 171 171 5 231 36 36 36 22 119 119 182 182 182 182 182 182 194 194 194 194
 194 194 194 194 225 225 171 171 171 171 231 231 231 36 36 36 119 119 119 10
 10 10 10 10 10 194 194 194 194 194 194 194 143 225 225 225 225 225 225 231
 231 36 36 36 36 36 119 119 10 10 10 10 10 10 194 194 90 90 194 194
 143 143 225 225 225 225 225 225 231 231 231 36 36 36 36 119 119 10 10 10
 10 10 10 194 194 90 90 90 90 143 143 143 30 30 30 30 30 231 231 36
 36 36 36 36 233 233 10 10 10 10 10 10 90 90 90 90 90 90 143 143
 226 226 30 30 30 30 30 129 36 36 123 123 233 233 233 10 10 10 10 10
 139 90 90 90 90 90 90 90 220 220 226 30 30 30 30 30 129 129 123 123
 123 123 241 241 241 180 10 180 180 59 59 90 90 90 90 220 220 220 220 220
 30 30 30 30 30 216 216 123 123 123 123 241 241 180 180 180 180 180 59 59
 59 59 90 220 220 220 220 220 220 30 30 30 19 19 216 216 123 123 123 58
 58 58 180 180 180 180 180 59 59 59 59 59 220 220 220 220 220 220 220 19
 19 19 19 216 216 216 123 58 58 58 58 180 180 180 180 180 59 59 59 59
 59 220 220 220 220 220 220 220 19 19 19 19 216 216 216 216 58 58 58 58
 180 180 180 180 213 89 89 89 89 89 220 220 220 220 220 1 1 19 19 19
 19 216 216 216 99 17 17 17 17 79 180 180 180 213 89 89 89 89 89 102
 102 1 1 1 1 1 1 19 19 19 19 99 99 99 17 17 17 179 179 179
 79 213 213 89 89 89 89 89 102 102 1 1 1 1 1 1 19 19 19 99
 99 99 99 17 17 17 179 179 179 179 213 213 89 89 89 215 215 102 102 1
 1 1 1 1 1 34 34 34 99 99 99 99 99 17 17 17 179 179 179 213
 215 215 215 215 215 215 102 102 1 1 1 1 34 34 34 34 34 99 99 99
 99 99 17 17 17 79 179 179 215 215 215 114 114 114 114 114 218 69 69 69
 69 34 34 34 34 34 99 99 217 217 217 217 217 79 79 79 80 114 114 114
 114 114 114 114 114 69 69 69 69 69 34 34 34 34 34 34 217 217 217 217
 217 217 79 80 80 80 80 114 114 114 114 114 114 24 69 69 69 69 69 69
 69 34 34 34 88 88 217 217 217 217 217 80 80 80 80 80 114 114 114 114
 114 24 24 69 69 69 69 69 69 69 69 88 88 88 88 88 217 217 217 217
 80 80 80 80 80 80 114 114 114 24 42 75 75 69 69 69 69 69 69 69
 88 88 88 88 88 88 54 54 54 80 80 80 80 68 68 68 114 114 42 42
 75 75 75 134 69 69 69 69 69 88 88 88 88 88 88 54 54 11 11 11
 80 68 68 68 68 68 114 42 42 75 75 75 75 134 69 69 69 93 93 88
 88 88 88 88 54 211 11 11 11 11 68 68 68 148 148 148 42 75 75 75
 75 75 75 69 69 93 93 93 93 165 165 88 88 211 211 211 11 11 11 148
 148 148 148 148 148 42 75 75 75 75 75 75 93 93 93 93 93 93 93 93
 88 88 211 211 211 11 11 57 57 148 148 148 148 148 42 75 75 75 75 75
 75 93 93 93 93 93 93 93 93 93 22 22 22 22 11 11 57 57 57 148
 148 148 148 194 194 194 75 75 75 75 171 171 171 93 93 93 93 93 22 22
 22 22 22 22 57 57 57 57 57 148 148 194 194 194 194 194 194 194 171 171
 171 171 171 93 93 93 93 22 22 22 22 22 22 22 57 57 57 57 148 194
 194 194 194 194 194 194 194 171 171 171 171 171 171 5 5 5 22 22 22 22
 22 22 182 182 182 182 182 182 194 194 194 194 194 194 194 194 171 171 171 171
 171 171 5 5 5 36 36 36 36 22 22 182 182 182 182 182 182 194 194 194
 194 194 194 143 143 143 171 171 171 171 5 5 5 36 36 36 36 36 36 51
 10 10 10 10 10 10 194 194 194 194 194 143 143 143 143 225 225 225 225 5
 5 5 36 36 36 36 36 36 51 10 10 10 10 10 10 194 194 90 90 143
 143 143 143 143 225 225 225 225 5 5 5 36 36 36 36 36 36 51 10 10
 10 10 10 10 194 194 90 90 90 143 143 143 143 30 30 30 30 30 30 223
 223 36 36 36 36 233 51 51 10 10 10 10 139 139 90 90 90 90 90 143
 143 143 30 30 30 30 30 30 223 223 223 12 12 241 241 241 241 10 10 10
 139 139 139 90 90 90 90 90 90 220 220 30 30 30 30 30 30 223 223 223
 123 241 241 241 241 241 241 180 180 59 59 59 90 59 90 90 220 220 220 220
 30 30 30 30 30 30 216 216 223 123 241 241 241 241 241 180 180 180 59 59
 59 59 59 59 220 220 220 220 220 220 30 30 30 19 19 216 216 216 123 241
 241 241 241 180 180 180 180 59 59 59 59 59 59 220 220 220 220 220 220 97
 97 19 19 19 216 216 216 216 58 58 58 58 180 180 180 180 59 59 59 59
 59 59 59 220 220 220 220 220 97 19 19 19 19 216 216 216 216 58 58 58
 58 180 180 180 180 213 59 59 59 89 59 220 220 220 220 220 220 19 19 19
 19 19 216 216 216 99 99 17 17 17 179 180 180 213 213 213 89 89 89 89
 220 220 220 1 1 1 1 19 19 19 19 19 99 99 99 99 17 17 17 179
 179 213 213 213 213 89 89 215 215 218 173 173 1 1 1 1 19 19 19 19
 99 99 99 99 99 17 17 179 179 179 179 213 213 215 215 215 215 215 218 218
 173 1 1 1 1 1 34 19 19 99 99 99 99 99 17 17 17 179 179 179
 213 215 215 215 215 215 215 218 218 218 1 1 1 34 34 34 34 34 99 99
 99 99 99 17 17 17 179 179 179 215 215 215 215 215 215 215 218 218 69 69
 69 69 34 34 34 34 34 99 99 99 99 99 217 17 17 179 179 80 215 215
 114 114 215 114 114 218 69 69 69 69 69 69 34 34 34 34 99 99 99 217
 217 217 217 80 80 80 80 80 114 114 114 114 114 114 114 69 69 69 69 69
 69 69 69 34 34 125 88 54 54 54 54 54 80 80 80 80 80 114 114 114
 114 114 114 69 69 69 69 69 69 69 69 69 69 88 88 88 54 54 54 54
 54 80 80 80 80 80 80 114 114 114 42 42 42 134 134 134 69 69 69 69
 69 88 88 88 88 54 54 54 54 54 54 80 80 80 68 68 68 114 114 42
 42 42 75 134 134 134 69 69 69 69 88 165 165 165 54 54 54 54 211 11
 11 80 68 68 68 68 68 42 42 42 42 75 75 134 134 69 69 69 93 93
 165 165 165 54 54 54 211 211 11 11 11 68 68 68 148 148 42 42 42 42
 75 75 75 134 69 69 93 93 93 165 165 165 165 54 211 211 211 211 11 11
 148 148 148 148 148 42 42 42 42 75 75 75 134 69 93 93 93 93 93 165
 165 165 54 211 211 211 211 11 57 57 148 148 148 148 42 42 42 75 75 75
 75 75 93 93 93 93 93 93 93 93 93 239 211 211 211 211 57 57 57 57
 148 148 148 42 194 194 194 75 75 75 75 171 171 171 93 93 93 93 93 239
 239 22 22 22 22 57 57 57 57 57 148 148 194 194 194 194 194 194 194 171
 171 171 171 171 93 93 93 93 22 22 22 22 22 22 57 57 57 57 57 194
 194 194 194 194 194 194 194 194 171 171 171 171 171 171 5 5 5 36 36 22
 22 22 22 182 182 182 182 182 194 194 194 194 194 194 194 143 143 197 197 197
 171 171 5 5 5 5 36 36 36 36 36 51 51 182 182 182 182 182 194 194
 194 194 194 143 143 143 143 197 197 197 197 5 5 5 5 36 36 36 36 36
 51 51 10 10 10 10 10 194 194 194 194 143 143 143 143 143 197 197 197 197
 5 5 5 5 36 36 36 36 36 51 51 10 10 10 10 10 194 194 194 143
 143 143 143 143 143 197 197 197 197 5 5 5 5 36 36 36 36 36 51 51
 10 10 10 10 10 139 194 139 143 143 143 143 143 143 30 30 30 30 30 223
 223 223 223 12 12 12 12 51 51 51 10 10 139 139 139 139 139 90 90 143
 143 143 143 30 30 30 30 30 223 223 223 223 12 12 12 241 241 31 31 31
 139 139 139 139 139 139 90 90 90 143 220 30 30 30 30 30 30 30 223 223
 223 12 12 241 241 241 31 31 31 139 139 139 139 139 59 90 90 220 220 220
 220 97 30 30 30 30 30 223 223 223 223 241 241 241 241 241 180 180 180 59
 59 59 59 59 59 59 220 220 220 220 97 97 30 30 30 30 216 45 45 45
 241 241 241 241 241 180 180 180 59 59 59 59 59 59 59 220 220 220 220 97
 97 97 19 19 19 216 216 45 45 241 241 241 167 167 180 180 180 59 59 59
 59 59 59 59 220 220 220 220 97 97 97 19 19 19 216 216 216 45 33 33
 33 33 167 180 180 213 213 59 59 59 59 59 59 220 220 220 220 97 97 19
 19 19 19 216 216 99 99 33 33 33 33 167 180 213 213 213 213 59 59 89
 89 173 173 173 173 173 1 19 19 19 19 19 19 99 99 99 99 33 33 33
 179 179 213 213 213 213 59 59 215 215 218 173 173 173 173 173 19 19 19 19
 19 99 99 99 99 99 17 17 179 179 179 213 213 213 215 215 215 215 215 218
 218 173 173 173 173 178 178 178 19 19 99 99 99 99 99 99 17 179 179 179
 179 213 215 215 215 215 215 215 218 218 218 173 173 178 178 178 178 34 235 235
 99 99 99 99 99 17 17 179 179 215 215 215 215 215 215 215 215 218 218 218
 69 69 69 69 34 34 34 235 235 235 235 235 235 235 17 17 179 179 80 215
 215 215 215 215 215 215 218 218 69 69 69 69 69 69 69 34 34 235 235 235
 235 235 54 54 54 80 80 80 103 114 114 114 215 114 203 203 69 69 69 69
 69 69 69 69 69 125 125 125 54 54 54 54 54 54 80 80 80 103 103 103
 114 114 114 42 69 69 69 69 69 69 69 69 69 69 125 125 125 54 54 54
 54 54 54 80 80 80 103 103 103 114 114 42 42 42 134 134 134 69 69 69
 69 69 69 125 125 125 54 54 54 54 54 54 80 80 80 103 103 103 114 114
 42 42 42 134 134 134 134 69 69 69 69 165 165 165 54 54 54 54 54 54
 211 11 80 68 68 68 68 68 42 42 42 42 75 134 134 134 69 69 69 69
 165 165 165 165 54 54 54 211 211 211 11 11 68 68 68 68 148 42 42 42
 42 75 75 134 134 69 69 93 93 93 165 165 165 165 54 54 211 211 211 11
 11 148 148 148 148 148 42 42 42 42 75 75 75 134 145 145 145 145 93 165
 165 165 165 54 211 211 211 211 11 57 57 148 148 148 148 42 42 42 42 42
 75 75 75 145 145 145 145 93 93 145 165 165 239 211 211 211 211 57 57 57
 57 148 148 42 42 42 42 42 42 75 75 75 145 145 145 145 93 93 145 145
 239 239 239 239 126 126 126 126 57 57 57 148 42 42 194 194 194 194 194 143
 197 197 197 171 171 93 93 93 93 239 239 239 239 126 126 126 126 57 57 57
 194 194 194 194 194 194 143 143 143 197 197 197 197 171 171 5 5 5 239 239
 239 239 126 126 126 126 182 182 182 194 194 194 194 194 143 143 143 143 143 197
 197 197 197 5 5 5 5 136 136 136 136 51 51 51 182 182 182 182 194 194
 194 194 194 143 143 143 143 143 197 197 197 197 5 5 5 5 36 36 36 36
 51 51 51 51 10 10 10 10 194 194 194 143 143 143 143 143 143 197 197 197
 197 5 5 5 5 36 36 36 36 51 51 51 51 10 10 10 10 139 194 194
 143 143 143 143 143 143 197 197 197 197 5 5 5 5 36 36 36 36 51 51
 51 51 10 10 10 139 139 139 139 139 143 143 143 143 143 175 175 30 30 30
 223 223 223 223 12 12 12 12 31 31 31 31 139 139 139 139 139 139 139 90
 143 143 143 143 97 30 30 30 30 223 223 223 223 12 12 12 12 31 31 31
 31 139 139 139 139 139 139 139 90 90 143 220 97 97 30 30 30 30 30 223
 223 223 12 12 12 241 241 31 31 31 139 139 139 139 139 59 59 59 220 220
 220 97 97 97 30 30 30 30 223 223 223 12 12 241 241 241 31 31 31 139
 139 59 59 59 59 59 59 220 220 220 97 97 97 97 97 97 97 45 45 45
 45 45 241 241 241 167 167 180 59 59 59 59 59 59 59 59 220 220 220 97
 97 97 97 97 19 19 45 45 45 45 45 33 167 167 167 167 180 213 59 59
 59 59 59 59 59 220 220 220 97 97 97 97 19 19 19 216 45 45 45 33
 33 33 167 167 167 213 213 213 59 59 59 59 59 59 173 173 173 173 97 97
 19 19 19 19 19 216 45 99 33 33 33 33 167 167 213 213 213 213 59 59
 59 59 173 173 173 173 173 173 19 19 19 19 19 19 99 99 99 99 33 33
 33 33 167 213 213 213 213 59 59 215 215 218 173 173 173 173 173 178 178 19
 19 19 235 99 99 99 99 40 40 40 33 179 213 213 213 215 215 215 215 218
 218 218 218 173 173 173 178 178 178 19 235 235 235 235 235 99 40 40 40 40
 179 213 213 215 215 215 215 215 218 218 218 218 173 173 178 178 178 178 178 235
 235 235 235 235 235 40 40 40 40 179 215 215 215 215 215 215 215 218 218 218
 218 218 69 69 178 178 178 178 235 235 235 235 235 235 40 40 40 40 103 103
 215 215 215 215 215 203 203 218 218 69 69 69 69 69 69 69 69 235 235 235
 235 235 235 235 54 54 103 103 103 103 103 103 215 215 203 203 203 203 69 69
 69 69 69 69 69 69 125 125 125 235 54 54 54 54 54 54 103 103 103 103
 103 103 103 203 203 203 69 69 69 69 69 69 69 69 69 125 125 125 54 54
 54 54 54 54 54 103 103 103 103 103 103 103 42 42 134 134 134 134 69 69
 69 69 69 125 125 125 125 54 54 54 54 54 54 54 103 103 103 103 103 103
 103 42 42 42 134 134 134 134 69 69 69 69 69 125 125 54 54 54 54 54
 54 54 54 156 103 103 103 103 103 42 42 42 42 134 134 134 134 69 69 69
 69 165 165 165 165 54 54 54 54 211 211 211 11 68 68 68 68 42 42 42
 42 42 42 134 134 134 69 145 145 145 145 165 165 165 54 54 54 211 211 211
 211 11 148 148 148 148 42 42 42 42 42 42 75 75 134 145 145 145 145 145
 145 165 165 54 54 54 211 211 211 211 57 57 148 148 148 42 42 42 42 42
 42 75 75 134 145 145 145 145 145 145 145 145 54 239 239 239 211 126 126 126
 126 57 148 191 42 42 42 42 42 42 75 75 145 145 145 145 145 145 145 145
 145 239 239 239 239 126 126 126 126 126 57 57 191 191 42 194 194 194 143 143
 143 197 197 197 197 145 145 145 145 145 239 239 239 239 126 126 126 126 126 126
 126 191 194 194 194 194 143 143 143 143 197 197 197 197 197 197 5 5 239 239
 239 239 136 126 126 126 126 126 182 182 194 194 194 194 143 143 143 143 143 143
 197 197 197 197 197 5 5 5 136 136 136 136 136 126 126 126 126 182 182 194
 194 194 194 143 143 143 143 143 143 197 197 197 197 5 5 5 5 136 136 136
 136 136 51 51 51 51 10 10 139 139 194 194 143 143 143 143 143 143 197 197
 197 197 5 5 5 5 136 136 136 136 51 51 51 51 51 10 10 139 139 139
 139 143 143 143 143 143 143 175 175 197 197 5 5 5 223 223 12 12 12 12
 51 51 51 51 10 139 139 139 139 139 139 163 163 143 143 175 175 175 175 175
 175 223 223 223 223 12 12 12 12 31 31 31 31 144 139 139 139 139 139 139
 163 163 143 143 175 175 175 175 175 175 175 223 223 223 12 12 12 12 31 31
 31 31 139 139 139 139 139 139 139 139 163 143 97 97 97 175 175 175 175 223
 223 223 223 12 12 12 12 31 31 31 31 139 139 139 139 139 139 139 139 50
 97 97 97 97 97 97 97 97 97 223 223 223 12 12 12 241 31 31 31 31
 139 139 139 139 139 59 59 59 220 220 97 97 97 97 97 97 97 97 45 45
 45 45 45 241 167 167 167 167 168 59 59 59 59 59 59 59 59 220 220 220
 97 97 97 97 97 97 19 45 45 45 45 45 33 167 167 167 167 168 168 59
 59 59 59 59 59 59 173 173 220 97 97 97 97 97 19 19 2 45 45 45
 33 33 33 167 167 167 168 168 213 59 59 59 59 59 173 173 173 173 173 97
 97 97 19 19 19 2 2 45 45 33 33 33 33 167 167 168 213 213 213 59
 59 59 173 173 173 173 173 173 76 76 76 19 19 19 2 2 99 99 33 33
 33 33 33 168 168 213 213 213 59 59 215 218 218 218 173 173 173 173 76 178
 178 19 61 61 235 235 99 40 40 40 40 40 168 213 213 213 215 215 215 215
 218 218 218 218 173 173 173 178 178 178 178 61 235 235 235 235 235 40 40 40
 40 40 213 213 215 215 215 215 215 218 218 218 218 173 173 178 178 178 178 178
 235 235 235 235 235 235 40 40 40 40 40 215 215 215 215 215 215 203 203 218
 218 218 218 69 69 178 178 178 178 235 235 235 235 235 235 40 40 40 170 170
 103 215 215 215 215 215 203 203 203 218 218 69 69 69 69 178 178 178 235 235
 235 235 235 235 235 54 54 170 103 103 103 103 103 103 203 203 203 203 203 69
 69 69 69 69 69 69 125 125 125 125 235 54 54 54 54 54 54 103 103 103
 103 103 103 203 203 203 203 203 69 69 69 69 69 69 69 125 125 125 125 54
 54 54 54 54 54 54 103 103 103 103 103 103 103 203 203 203 134 134 69 69
 69 69 69 69 125 125 125 125 54 54 54 54 54 54 156 156 103 103 103 103
 103 103 42 42 42 134 134 134 69 69 69 69 69 162 162 162 54 54 54 54
 54 54 54 156 156 156 103 103 103 103 42 42 42 42 134 134 134 69 69 69
 69 162 162 162 162 162 54 54 54 54 54 54 54 156 156 156 156 103 103 42
 42 42 42 42 134 134 134 69 145 145 145 145 162 162 162 54 54 54 54 54
 211 211 156 156 156 156 191 191 42 42 42 42 42 75 75 134 145 145 145 145
 145 145 145 162 162 54 54 54 211 211 126 126 126 156 191 191 191 42 42 42
 42 42 75 166 145 145 145 145 145 145 145 145 145 239 239 239 239 211 126 126
 126 126 126 191 191 191 191 42 42 42 42 166 166 145 145 145 145 145 145 145