# vtk DataFile Version 2.0
Data set from ImportExport Version 6.5.171.b0b162591
ASCII

DATASET RECTILINEAR_GRID
DIMENSIONS 30 30 30
X_COORDINATES 30 float
-1.250000 1.250000 3.750000 6.250000 8.750000 11.250000 13.750000 16.250000 18.750000 21.250000 23.750000 26.250000 28.750000 31.250000 33.750000 36.250000 38.750000 41.250000 43.750000 46.250000 48.750000 
51.250000 53.750000 56.250000 58.750000 61.250000 63.750000 66.250000 68.750000 71.250000 
Y_COORDINATES 30 float
-1.250000 1.250000 3.750000 6.250000 8.750000 11.250000 13.750000 16.250000 18.750000 21.250000 23.750000 26.250000 28.750000 31.250000 33.750000 36.250000 38.750000 41.250000 43.750000 46.250000 48.750000 
51.250000 53.750000 56.250000 58.750000 61.250000 63.750000 66.250000 68.750000 71.250000 
Z_COORDINATES 30 float
-1.250000 1.250000 3.750000 6.250000 8.750000 11.250000 13.750000 16.250000 18.750000 21.250000 23.750000 26.250000 28.750000 31.250000 33.750000 36.250000 38.750000 41.250000 43.750000 46.250000 48.750000 
51.250000 53.750000 56.250000 58.750000 61.250000 63.750000 66.250000 68.750000 71.250000 
CELL_DATA 24389
SCALARS FeatureIds int 1
LOOKUP_TABLE default
 240 240 240 166 166 166 166 166 166 15 15 15 15 222 222 222 222 222 222 220
 220 220 220 220 220 54 54 54 54 240 240 240 166 166 166 166 166 166 15 15
 15 15 222 222 222 222 222 220 220 220 220 220 220 220 54 54 54 54 195 240
 240 166 166 166 166 166 166 15 15 15 15 222 222 222 222 222 220 220 220 220
 220 220 220 54 54 54 195 195 195 94 94 166 166 166 166 166 15 15 139 139
 139 222 222 222 222 220 220 220 220 220 220 220 54 54 54 195 195 195 96 96
 96 96 96 96 96 139 139 139 139 139 139 222 222 220 220 220 220 220 220 220
 220 54 54 195 195 195 195 96 96 96 96 96 96 96 139 139 139 139 139 139
 139 222 220 220 220 220 220 220 220 43 43 43 43 195 195 96 96 96 96 96
 96 96 96 139 139 139 139 139 139 139 139 220 220 220 220 220 220 43 43 43
 43 43 43 195 96 96 96 96 96 96 96 96 139 139 139 139 139 139 139 193
 193 162 162 220 220 220 43 43 43 43 43 43 79 96 96 96 96 96 96 96
 104 139 139 139 139 105 105 193 193 193 162 162 162 162 43 43 43 43 43 43
 43 79 96 96 96 96 96 96 104 104 104 139 139 105 105 105 193 193 193 162
 162 162 162 229 229 229 43 79 79 79 79 79 96 96 96 96 104 104 104 104
 139 139 105 193 193 193 193 193 162 162 162 162 229 229 229 229 79 79 79 79
 79 96 96 96 96 104 80 80 80 80 193 193 193 193 193 193 193 162 162 162
 37 229 229 229 229 79 79 79 79 79 177 177 177 121 80 80 80 80 19 19
 19 193 193 193 193 60 60 60 37 37 229 229 229 79 79 79 79 79 177 177
 177 177 121 121 80 80 80 19 19 19 193 193 60 60 60 60 60 60 60 169
 229 229 79 79 79 79 177 177 177 177 177 177 177 125 80 80 19 19 19 19
 60 60 60 60 60 60 60 60 158 158 32 205 79 79 79 29 29 177 177 177
 177 177 31 31 125 186 186 186 60 60 60 60 60 60 60 60 158 158 158 32
 32 205 29 29 29 29 29 177 177 177 31 31 31 31 186 186 186 186 60 60
 60 60 60 60 60 158 158 32 32 32 32 29 29 29 29 29 29 177 31 31
 31 31 31 186 186 186 186 60 60 60 60 60 60 60 158 32 32 32 32 32
 29 29 29 29 29 29 31 31 31 31 31 31 186 186 186 186 60 60 60 60
 60 60 1 158 32 32 32 32 32 29 29 29 29 29 29 31 31 31 31 31
 31 31 186 186 186 132 132 132 132 132 132 1 32 32 32 32 32 204 204 29
 29 29 29 36 31 31 31 31 31 31 31 186 186 132 132 132 132 132 132 132
 132 32 32 32 204 204 204 204 204 36 36 36 36 36 31 31 31 31 31 31
 186 132 132 132 132 132 132 132 132 241 32 32 204 204 204 204 70 70 36 36
 36 36 36 36 71 71 31 31 31 180 180 132 132 132 132 132 132 132 241 165
 165 165 204 204 204 70 70 36 36 36 36 36 36 71 71 71 71 180 180 180
 175 175 175 175 132 132 241 165 165 165 165 165 165 70 70 70 36 36 36 36
 36 36 71 71 71 180 180 180 180 180 175 175 175 175 175 84 165 165 165 165
 165 165 165 70 70 36 36 36 36 36 36 36 71 71 180 180 180 180 180 175
 175 175 175 175 84 165 165 165 165 165 165 165 165 240 240 240 240 36 36 36
 199 166 199 180 180 180 180 180 180 175 175 175 175 84 165 165 165 165 165 165
 165 165 240 240 240 240 240 36 166 166 166 166 166 180 180 180 180 175 175 175
 175 175 175 165 165 165 165 165 165 165 240 240 240 240 240 240 240 166 166 166
 166 166 15 180 180 180 175 222 175 175 175 175 165 165 165 165 165 165 165 240
 240 240 240 240 240 166 166 166 166 166 166 166 15 222 222 222 222 222 222 222
 220 220 220 220 220 220 54 54 54 195 240 240 240 166 166 166 166 166 166 166
 166 15 222 222 222 222 222 222 220 220 220 220 220 220 220 54 54 54 195 195
 195 94 94 166 166 166 166 166 166 166 15 222 222 222 222 222 222 220 220 220
 220 220 220 220 54 54 195 195 195 195 94 94 94 166 166 166 166 166 139 139
 139 139 222 222 222 222 220 220 220 220 220 220 220 54 54 195 195 195 195 94
 94 94 96 96 166 166 139 139 139 139 139 139 222 222 220 220 220 220 220 220
 220 220 220 195 195 195 195 195 96 96 96 96 96 96 96 139 139 139 139 139
 139 139 222 220 220 220 220 220 220 220 43 43 43 195 195 195 195 96 96 96
 96 96 96 96 139 139 139 139 139 139 139 139 41 220 220 220 220 220 43 43
 43 43 43 195 195 96 96 96 96 96 96 96 96 139 139 139 139 139 139 139
 193 193 162 220 220 220 220 43 43 43 43 43 195 79 96 96 96 96 96 96
 96 96 139 139 139 139 105 105 193 193 193 162 162 162 162 43 43 43 43 43
 43 43 79 79 96 96 96 96 96 96 96 139 139 139 105 105 105 193 193 193
 37 37 37 37 43 43 43 43 43 79 79 79 79 96 96 96 96 96 96 104
 104 139 139 105 105 193 193 193 193 37 37 37 37 37 209 209 79 79 79 79
 79 79 121 121 121 121 121 80 125 125 125 193 193 193 193 193 193 193 37 37
 37 37 37 209 209 79 79 79 79 79 79 121 121 121 121 121 125 125 125 125
 125 51 193 193 193 193 60 37 37 37 37 169 169 169 79 79 79 79 79 177
 177 121 121 121 121 125 125 125 125 125 51 51 193 60 60 60 60 60 60 169
 169 169 169 169 79 79 79 177 177 177 177 121 121 121 125 125 125 125 125 51
 51 60 60 60 60 60 60 60 169 169 169 169 205 205 205 79 29 29 177 177
 177 121 121 125 125 125 125 186 186 186 60 60 60 60 60 60 60 158 32 32
 205 205 205 205 29 29 29 29 177 177 31 31 31 31 31 186 186 186 186 60
 60 60 60 60 60 60 1 32 32 32 205 205 205 29 29 29 29 29 31 31
 31 31 31 31 186 186 186 186 60 60 60 60 60 60 1 1 32 32 32 32
 32 29 29 29 29 29 29 31 31 31 31 31 31 186 186 186 186 60 60 60
 219 219 60 1 1 32 32 32 32 32 32 29 29 29 29 31 31 31 31 31
 31 31 31 186 186 186 132 132 132 132 132 60 1 1 32 32 32 32 204 204
 29 29 29 29 31 31 31 31 31 31 31 31 186 186 132 132 132 132 132 132
 132 1 1 32 32 204 204 204 204 204 36 36 36 36 31 31 31 31 31 31
 31 186 132 132 132 132 132 132 132 241 241 165 32 204 204 204 204 204 70 36
 36 36 36 36 31 31 31 31 31 31 180 180 132 132 132 132 132 132 241 241
 165 165 165 204 204 204 204 70 36 36 36 36 36 228 228 228 71 71 180 180
 180 180 132 132 132 132 241 241 241 165 165 165 165 165 204 204 70 36 36 36
 36 36 228 228 71 71 180 180 180 180 180 180 175 175 175 84 84 84 165 165
 165 165 165 165 165 165 240 240 36 36 36 228 199 199 199 180 180 180 180 180
 180 175 175 175 84 84 84 165 165 165 165 165 165 165 240 240 240 240 240 36
 199 199 199 199 199 180 180 180 180 180 175 175 175 84 84 84 165 165 165 165
 165 165 165 240 240 240 240 240 240 199 199 199 199 199 180 180 180 180 180 175
 175 175 175 84 84 165 165 165 165 165 165 165 240 240 240 240 240 240 166 166
 166 166 166 15 180 180 180 222 222 222 175 175 84 84 165 165 165 165 165 165
 240 240 240 240 240 240 166 166 166 166 166 166 166 113 222 222 222 222 222 222
 222 220 220 220 220 220 220 220 235 235 195 195 240 181 166 166 166 166 166 166
 166 166 166 222 222 222 222 222 222 220 220 220 220 220 220 220 220 54 195 195
 195 195 94 94 94 166 166 166 166 166 166 139 222 222 222 222 222 222 220 220
 220 220 220 220 220 220 195 195 195 195 195 94 94 94 94 166 166 166 166 139
 139 139 139 222 222 222 222 220 220 220 220 220 220 220 220 195 195 195 195 195
 94 94 94 94 94 96 166 139 139 139 139 139 139 222 222 220 220 220 220 220
 220 220 220 220 195 195 195 195 195 94 94 94 96 96 96 96 139 139 139 139
 139 139 139 41 220 220 220 220 220 220 220 43 43 43 195 195 195 195 96 96
 96 96 96 96 96 47 139 139 139 139 139 139 41 41 220 220 220 220 220 43
 43 43 43 195 195 195 195 96 96 96 96 96 96 96 47 139 139 139 139 139
 139 193 41 65 65 220 220 220 43 43 43 43 43 195 195 96 96 96 96 96
 96 96 96 139 139 139 139 105 105 193 193 193 37 37 37 37 43 43 43 43
 43 43 195 79 191 191 96 96 96 96 96 96 139 139 139 105 105 105 193 193
 37 37 37 37 37 37 43 43 43 43 79 79 79 79 191 96 96 96 96 96
 125 125 139 139 105 105 193 193 193 37 37 37 37 37 37 209 209 209 79 79
 79 79 79 121 121 121 121 121 121 125 125 125 193 193 193 193 193 193 37 37
 37 37 37 169 209 209 209 79 79 79 79 79 121 121 121 121 121 121 125 125
 125 125 51 51 193 193 193 37 37 37 37 37 169 169 169 209 79 79 79 79
 79 121 121 121 121 121 125 125 125 125 125 51 51 51 60 60 60 60 37 37
 169 169 169 169 169 79 79 79 79 176 121 121 121 121 121 125 125 125 125 125
 51 51 51 60 60 60 60 60 60 169 169 169 205 205 205 205 79 29 176 177
 121 121 121 121 125 125 125 125 186 51 51 60 60 60 60 60 60 60 1 169
 205 205 205 205 205 205 29 29 176 177 121 31 31 31 125 125 186 186 186 186
 60 60 60 60 60 60 1 1 1 32 205 205 205 205 205 29 29 29 176 31
 31 31 31 31 31 186 186 186 186 60 60 219 219 219 219 1 1 1 32 32
 205 205 205 176 29 29 29 31 31 31 31 31 31 31 186 186 186 186 219 219
 219 219 219 1 1 1 1 32 32 32 32 32 176 29 176 29 31 31 31 31
 31 31 31 31 186 186 186 132 132 132 132 219 1 1 1 1 32 32 32 204
 204 95 95 176 144 31 31 31 31 31 31 31 31 186 186 132 132 132 132 132
 132 1 1 1 1 32 204 204 204 204 95 95 95 36 144 228 31 31 31 31
 31 31 208 208 208 132 132 132 132 132 241 241 241 1 204 204 204 204 204 95
 95 36 36 228 228 228 228 31 31 31 31 208 208 208 132 132 132 132 241 241
 241 241 165 164 164 164 204 95 95 36 36 36 228 228 228 228 228 31 31 180
 180 208 208 208 132 132 132 241 241 241 165 165 165 164 164 204 95 95 36 36
 36 228 228 228 228 228 199 199 180 180 180 180 180 175 175 84 84 84 84 165
 165 165 165 165 165 165 95 240 240 240 36 228 228 199 199 199 199 180 180 180
 180 180 175 175 84 84 84 84 165 165 165 165 165 165 165 240 240 240 240 240
 199 199 199 199 199 199 180 180 180 180 180 175 175 84 84 84 84 165 165 165
 165 165 165 165 240 240 240 240 240 240 199 199 199 199 199 113 113 180 180 180
 175 175 84 84 84 84 165 165 165 165 165 165 240 240 240 240 240 240 199 199
 199 199 199 199 113 113 113 180 222 222 222 222 84 84 84 165 165 165 165 165
 165 240 240 181 181 181 181 166 166 166 166 166 166 113 113 113 222 222 222 222
 222 222 220 220 220 220 220 220 235 235 235 181 181 181 181 181 94 166 166 166
 166 166 166 113 113 222 222 222 222 222 220 220 220 220 220 220 220 235 235 181
 181 181 181 181 94 94 94 166 166 166 166 166 139 139 222 222 222 120 120 220
 220 220 220 220 220 220 220 235 195 195 195 195 94 94 94 94 94 166 166 166
 139 139 139 139 120 120 120 120 220 220 220 220 220 220 220 220 195 195 195 195
 195 94 94 94 94 94 94 166 139 139 139 139 139 120 120 120 120 220 220 220
 220 220 220 220 220 195 195 195 195 195 94 94 94 94 94 96 96 47 47 47
 139 139 139 120 41 41 220 220 220 220 220 220 43 43 43 195 195 195 195 96
 96 96 96 96 96 96 47 47 47 139 139 41 41 41 41 65 65 220 220 220
 43 43 43 43 195 195 195 195 191 191 96 96 96 96 96 47 47 47 47 139
 41 41 41 41 65 65 65 65 220 43 43 43 43 43 195 195 191 191 191 96
 96 96 96 96 47 47 47 139 139 41 41 41 41 65 65 65 65 43 43 43
 43 43 43 195 191 191 191 191 96 96 96 96 96 47 139 139 105 105 193 193
 193 37 37 37 37 37 37 209 209 209 209 79 79 79 191 191 191 96 96 96
 96 125 125 125 139 105 105 193 193 193 37 37 37 37 37 37 209 209 209 209
 79 79 79 191 191 121 121 121 121 121 125 125 125 125 51 51 193 193 193 37
 37 37 37 37 169 209 209 209 209 79 79 79 79 121 121 121 121 121 125 125
 125 125 125 51 51 51 193 193 37 37 37 37 37 169 169 169 209 209 79 79
 79 121 121 121 121 121 121 125 125 125 125 125 51 51 51 51 60 60 37 37
 37 169 169 169 169 169 205 79 79 176 176 121 121 121 121 121 125 125 125 125
 125 51 51 51 60 60 60 60 60 60 169 169 169 205 205 205 205 205 176 176
 176 121 121 121 121 125 125 125 125 125 51 51 51 60 60 60 60 60 1 1
 1 205 205 205 205 205 205 176 176 176 176 121 121 31 125 125 125 190 190 190
 190 60 219 219 219 219 1 1 1 1 1 205 205 205 205 176 176 176 176 176
 176 31 31 31 31 190 190 190 190 190 190 219 219 219 219 1 1 1 1 1
 205 205 205 205 176 176 176 176 176 31 31 31 31 31 31 190 190 190 190 190
 219 219 219 219 1 1 1 1 1 32 32 205 95 176 176 176 176 176 31 31
 31 31 31 31 190 190 190 190 190 219 219 219 219 1 1 1 1 1 32 32
 95 95 95 95 176 144 144 31 31 31 31 31 31 190 190 208 208 132 132 132
 132 132 1 1 1 1 1 164 164 95 95 95 95 95 144 144 228 228 31 31
 31 31 208 208 208 208 208 132 132 132 241 241 241 241 1 164 164 164 95 95
 95 95 95 114 114 228 228 228 228 31 31 208 208 208 208 208 132 132 132 241
 241 241 241 165 164 164 164 95 95 95 95 114 114 114 228 228 228 228 228 208
 208 208 208 208 208 208 132 49 241 241 241 241 165 164 164 164 95 95 95 95
 114 114 114 228 228 228 228 228 199 208 208 208 208 208 208 208 84 84 84 84
 84 165 165 165 165 165 95 95 240 240 114 114 228 228 199 199 199 199 113 113
 208 208 208 208 84 84 84 84 84 84 165 165 165 165 165 165 240 240 240 240
 240 199 199 199 199 199 199 113 113 113 113 208 208 84 84 84 84 84 84 165
 165 165 165 165 165 240 240 240 240 240 199 199 199 199 199 199 113 113 113 113
 113 113 84 84 84 84 84 165 165 165 165 165 165 240 240 240 240 240 240 199
 199 199 199 199 199 113 113 113 113 222 222 222 222 84 84 84 165 165 165 165
 165 165 235 240 181 181 181 181 181 166 199 199 199 113 113 113 113 113 222 222
 222 222 222 220 220 220 220 220 235 235 235 235 181 181 181 181 181 94 166 166
 166 166 166 113 113 113 113 120 120 120 120 120 220 220 220 220 220 220 235 235
 235 181 181 181 181 94 94 94 94 166 166 166 113 113 113 120 120 120 120 120
 120 220 220 220 220 220 220 235 235 235 181 195 181 94 94 94 94 94 166 166
 166 47 139 139 120 120 120 120 120 120 220 220 220 220 220 220 235 235 195 195
 195 195 94 94 94 94 94 94 94 47 47 47 47 139 120 120 120 120 120 220
 220 220 220 220 187 187 195 195 195 195 195 94 94 94 94 94 94 47 47 47
 47 47 41 41 120 41 41 65 220 220 220 220 187 187 187 195 195 195 195 195
 191 191 94 94 96 96 47 47 47 47 47 41 41 41 41 41 65 65 65 220
 187 187 43 43 43 195 195 195 191 191 191 191 96 96 96 47 47 47 47 47
 41 41 41 41 41 65 65 65 65 65 187 43 43 43 43 195 191 191 191 191
 191 191 96 96 96 47 47 47 47 41 41 41 41 41 65 65 65 65 65 43
 43 43 43 43 195 191 191 191 191 191 96 96 96 130 130 130 130 105 41 41
 41 41 37 65 65 65 65 65 209 209 209 209 209 79 191 191 191 191 191 96
 96 130 130 130 130 130 130 105 193 193 193 37 37 37 37 37 37 209 209 209
 209 209 79 79 191 191 121 121 121 121 121 125 125 125 125 51 51 51 193 193
 37 37 37 37 37 37 209 209 209 209 209 79 79 191 121 121 121 121 121 125
 125 125 125 125 51 51 51 51 193 37 37 37 37 37 169 169 169 209 209 209
 79 176 121 121 121 121 121 121 125 125 125 125 125 51 51 51 51 60 37 37
 37 37 169 169 169 169 205 205 205 79 176 176 121 121 121 121 121 125 125 125
 125 125 51 51 51 60 60 60 60 60 37 169 169 169 205 205 205 205 205 176
 176 176 121 121 121 121 125 125 125 125 190 190 51 51 60 60 60 60 1 1
 1 1 205 205 205 205 205 176 176 176 176 176 121 121 121 125 125 190 190 190
 190 190 190 219 219 219 219 1 1 1 1 1 205 205 205 205 176 176 176 176
 176 176 83 31 31 190 190 190 190 190 190 190 219 219 219 219 1 1 1 1
 1 1 205 205 205 176 176 176 176 176 176 31 31 31 31 190 190 190 190 190
 190 219 219 219 219 1 1 1 1 1 1 32 95 95 176 176 176 176 176 144
 31 31 31 31 190 190 190 190 190 190 219 219 219 1 1 1 1 1 1 1
 95 95 95 95 95 144 144 144 144 144 31 31 31 31 190 190 208 208 208 208
 49 49 49 1 1 1 1 1 164 95 95 95 95 95 144 144 144 144 144 31
 31 31 31 208 208 208 208 208 208 49 49 49 241 241 1 1 164 164 164 95
 95 95 95 144 144 114 144 228 228 228 31 208 208 208 208 208 208 208 49 49
 49 241 241 241 1 164 164 131 95 95 95 95 114 114 114 228 228 228 228 228
 208 208 208 208 208 208 208 208 49 49 49 241 241 28 164 131 131 131 95 95
 95 114 114 114 228 228 228 228 199 208 208 208 208 208 208 208 208 84 84 84
 84 84 28 28 28 131 131 95 95 240 114 114 114 228 228 199 199 199 113 113
 113 208 208 208 208 208 84 84 84 84 84 28 28 28 28 28 28 95 240 240
 114 114 199 199 199 199 199 113 113 113 113 113 208 208 84 84 84 84 84 84
 28 28 28 28 28 28 28 240 240 240 240 199 199 199 199 199 113 113 113 113
 113 113 113 84 84 84 84 84 84 28 28 28 28 28 28 235 181 181 181 181
 199 199 199 199 199 113 113 113 113 113 113 113 222 84 84 84 84 84 28 28
 28 28 235 235 235 181 181 181 181 243 243 199 199 199 113 113 113 113 113 113
 120 120 120 120 120 167 167 167 235 235 235 235 235 235 181 181 181 181 243 243
 166 166 166 113 113 113 113 113 120 120 120 120 120 120 220 220 220 235 235 235
 235 235 235 181 181 181 181 94 94 94 166 166 113 113 113 113 120 120 120 120
 120 120 220 220 220 220 187 235 235 235 235 235 181 181 94 94 94 94 94 94
 166 47 47 139 139 120 120 120 120 120 120 220 220 187 187 187 187 235 221 221
 221 195 195 94 94 94 94 94 94 94 47 47 47 47 120 120 120 120 120 120
 8 220 187 187 187 187 187 221 221 221 195 195 94 94 94 94 94 94 47 47
 47 47 47 41 41 120 41 41 41 65 187 187 187 187 187 187 221 221 221 195
 195 191 191 191 94 94 130 47 47 47 47 47 41 41 41 41 41 65 65 65
 136 187 187 187 187 221 195 195 191 191 191 191 191 191 96 130 130 47 47 47
 47 41 41 41 41 41 65 65 65 136 136 187 187 187 187 195 195 191 191 191
 191 191 191 130 130 130 130 130 47 47 41 41 41 41 41 65 65 65 65 136
 187 187 187 43 43 195 191 191 191 191 191 191 130 130 130 130 130 130 130 41
 41 41 41 41 65 65 65 65 136 209 209 209 209 209 79 191 191 191 191 191
 108 108 130 130 130 130 130 130 41 193 30 30 98 98 98 98 98 98 209 209
 209 209 209 79 191 191 108 108 108 108 108 86 86 86 86 130 214 214 214 30
 30 98 98 98 98 37 37 209 209 209 209 209 151 108 108 108 108 108 108 108
 125 125 125 86 86 214 214 214 214 30 98 98 98 37 37 169 169 151 151 151
 151 151 108 108 108 108 108 108 108 125 125 125 125 125 214 214 214 214 214 98
 98 98 37 169 169 169 151 151 151 151 151 176 108 108 108 108 108 108 125 125
 125 125 125 51 214 214 214 60 60 60 98 37 169 169 169 151 151 151 151 151
 176 176 176 108 108 108 108 125 125 125 190 190 190 190 214 60 60 60 60 1
 1 1 1 1 205 205 205 205 176 176 176 176 176 108 83 83 125 125 190 190
 190 190 190 190 219 219 219 219 1 1 1 1 1 205 205 205 205 176 176 176
 176 176 83 83 83 83 190 190 190 190 190 190 190 219 219 219 1 1 1 1
 1 1 150 150 205 176 176 176 176 176 176 83 83 83 83 190 190 190 190 190
 190 190 219 219 219 1 1 1 1 1 1 150 150 95 95 176 176 176 176 144
 144 83 83 83 190 190 190 190 190 190 190 219 219 49 1 1 1 1 1 1
 150 150 95 95 95 95 144 144 144 144 144 83 31 31 190 190 190 208 208 208
 208 49 49 49 49 1 1 1 1 150 95 95 95 95 95 144 144 144 144 144
 144 31 31 208 208 208 208 208 208 208 49 49 49 49 49 1 1 1 164 95
 95 95 95 95 144 144 144 144 144 228 228 208 208 208 208 208 208 208 208 49
 49 49 49 49 241 1 131 131 131 95 95 95 95 144 114 114 114 228 228 228
 228 208 208 208 208 208 208 208 49 49 49 49 49 241 28 28 131 131 131 95
 95 95 114 114 114 114 228 228 128 128 208 208 208 208 208 208 208 208 49 49
 84 84 84 28 28 28 131 131 95 95 95 114 114 114 114 128 128 128 128 113
 113 113 208 208 208 208 208 84 84 84 84 84 28 28 28 28 28 28 95 240
 114 114 114 128 128 128 128 128 113 113 113 113 113 208 208 208 84 84 84 84
 84 28 28 28 28 28 28 28 181 181 181 181 199 199 199 199 199 113 113 113
 113 113 113 113 113 84 84 84 84 28 28 28 28 28 28 28 235 181 181 181
 181 181 199 199 199 199 113 113 113 113 113 113 113 113 84 84 84 84 28 28
 28 28 28 235 235 235 181 181 181 243 243 243 128 128 128 113 113 113 113 113
 113 120 120 120 120 167 167 167 167 235 235 235 235 235 235 181 181 181 243 243
 243 128 128 128 113 113 113 113 113 120 120 120 120 120 167 167 167 167 235 235
 235 235 235 235 181 181 181 243 243 243 243 166 128 113 113 113 113 120 120 120
 120 120 120 167 167 187 187 235 235 235 235 235 235 221 181 243 243 94 94 94
 94 2 113 113 113 120 120 120 120 120 120 120 8 8 187 187 187 187 221 221
 221 221 221 181 94 94 94 94 94 94 130 47 47 47 47 120 120 120 120 120
 8 8 8 187 187 187 187 221 221 221 221 221 155 155 155 94 94 94 130 130
 47 47 47 47 41 120 120 120 120 8 8 8 187 187 187 187 187 221 221 221
 155 155 155 155 155 94 130 130 130 130 47 47 47 41 41 41 41 41 65 65
 136 136 187 187 187 187 221 221 221 155 155 155 191 191 191 130 130 130 130 130
 130 47 41 41 41 41 41 65 65 136 136 136 187 187 187 187 221 221 191 191
 191 191 191 191 130 130 130 130 130 130 130 41 41 41 41 41 65 65 65 136
 136 136 187 187 187 221 221 191 191 191 191 191 191 130 130 130 130 130 130 130
 41 41 41 41 98 98 98 98 98 136 136 151 151 151 151 151 191 191 191 191
 108 108 130 130 130 130 130 130 130 130 30 30 30 98 98 98 98 98 98 151
 151 151 151 151 151 191 191 108 108 108 108 108 86 86 86 86 86 214 214 30
 30 30 98 98 98 98 98 151 151 151 151 151 151 151 108 108 108 108 108 108
 108 86 86 86 86 86 214 214 214 30 30 98 98 98 98 98 151 151 151 151
 151 151 151 108 108 108 108 108 108 108 108 125 86 86 86 214 214 214 214 30
 98 98 98 98 98 151 151 151 151 151 151 151 176 108 108 108 108 108 108 125
 125 125 125 190 214 214 214 214 214 98 98 98 98 98 151 151 151 151 151 151
 151 176 176 176 108 108 108 108 125 125 190 190 190 190 190 67 214 173 173 173
 1 1 1 1 151 151 151 14 14 176 176 176 176 176 108 83 83 83 125 190
 190 190 190 190 67 173 173 173 173 1 1 1 1 1 150 14 14 14 176 176
 176 176 176 83 83 83 83 190 190 190 190 190 190 67 173 173 173 173 1 1
 1 1 150 150 150 150 14 176 176 176 176 176 83 83 83 83 83 190 190 190
 190 190 67 173 173 173 173 1 1 1 1 150 150 150 150 95 176 176 176 176
 144 144 83 83 83 83 190 190 190 190 190 67 173 173 173 173 1 1 1 1
 150 150 150 95 95 95 95 144 144 144 144 144 83 83 83 190 190 190 208 208
 208 208 49 49 49 49 1 1 1 150 150 150 95 95 95 95 144 144 144 144
 144 144 83 212 208 208 208 208 208 208 208 49 49 49 49 49 1 1 150 72
 95 95 95 95 95 144 144 144 144 144 144 144 208 208 208 208 208 208 208 208
 49 49 49 49 49 49 28 131 131 131 95 95 95 95 144 144 144 144 144 228
 128 128 208 208 208 208 208 208 208 49 49 49 49 49 28 28 28 131 131 131
 95 95 95 114 114 114 144 128 128 128 128 128 208 208 208 208 208 208 208 49
 49 49 49 28 28 28 28 28 131 95 95 95 114 114 114 144 128 128 128 128
 128 113 113 208 208 208 208 208 84 84 84 84 28 28 28 28 28 28 28 28
 235 181 114 114 128 128 128 128 128 113 113 113 113 113 208 208 208 84 84 84
 84 28 28 28 28 28 28 28 28 235 181 181 243 128 128 128 128 128 113 113
 113 113 113 113 113 113 84 84 85 85 28 28 28 28 28 28 235 235 235 181
 181 243 243 128 128 128 128 113 113 113 113 113 113 113 113 85 85 85 85 28
 28 28 28 235 235 235 235 235 181 243 243 243 243 128 128 128 128 113 113 113
 113 21 120 120 120 85 167 167 167 167 167 235 235 235 235 235 235 181 243 243
 243 243 128 128 128 128 113 113 113 113 120 120 120 120 167 167 167 167 167 167
 235 235 235 235 235 235 181 243 243 243 243 243 2 2 2 113 113 113 120 120
 120 120 120 120 167 167 167 167 167 235 235 235 235 235 221 181 243 243 243 243
 243 2 2 2 2 113 120 120 120 120 120 120 8 8 8 187 187 187 187 221
 221 221 221 221 155 155 155 155 155 155 130 130 130 130 47 120 120 120 120 120
 201 8 8 8 187 187 187 187 221 221 221 221 221 155 155 155 155 155 155 130
 130 130 130 47 236 236 236 236 201 201 8 8 8 187 187 187 187 187 221 221
 221 155 155 155 155 155 155 130 130 130 130 130 130 236 236 236 236 236 201 8
 8 136 136 187 187 187 187 221 221 221 155 155 155 155 155 155 130 130 130 130
 130 130 203 236 236 236 236 236 201 8 136 136 136 187 187 187 187 221 221 155
 155 155 155 155 155 130 130 130 130 130 130 203 203 236 236 236 236 98 98 136
 136 136 136 187 187 187 221 221 155 155 155 155 155 155 130 130 130 130 130 130
 203 203 236 236 236 98 98 98 98 98 136 136 151 151 151 151 151 155 155 155
 155 108 108 130 130 130 130 130 130 130 203 30 30 30 98 98 98 98 98 98
 151 151 151 151 151 151 154 108 108 108 108 108 130 86 86 86 86 86 130 214
 30 30 30 98 98 98 98 98 98 151 151 151 151 151 151 108 108 108 108 108
 108 108 86 86 86 86 86 214 214 214 30 30 98 98 98 98 98 200 151 151
 151 151 151 151 108 108 108 108 108 108 108 86 86 86 86 86 214 214 214 214
 30 98 98 98 98 98 200 151 151 151 151 151 151 176 108 108 108 108 108 108
 125 125 125 125 190 214 214 214 214 214 98 98 98 98 200 200 151 151 151 151
 151 151 176 176 108 108 108 108 108 125 125 190 190 190 67 67 67 67 173 173
 173 173 1 1 1 151 151 14 14 14 14 176 176 176 176 108 83 83 83 83
 190 190 190 67 67 67 67 173 173 173 173 1 1 1 244 14 14 14 14 14
 176 176 176 176 83 83 83 83 83 190 190 190 67 67 67 67 173 173 173 173
 1 1 1 150 150 150 14 14 176 176 176 176 176 83 83 83 83 83 190 190
 190 67 67 67 67 173 173 173 173 1 1 1 150 150 150 150 95 176 176 176
 176 144 144 83 83 83 83 212 190 190 67 67 67 67 173 173 173 173 1 1
 1 150 150 150 150 95 95 95 144 144 144 144 144 83 83 212 212 190 194 194
 194 194 194 49 49 49 49 1 1 1 150 150 150 95 95 95 95 144 144 144
 144 144 144 212 212 20 208 208 208 208 208 208 49 49 49 49 49 49 72 72
 72 72 72 95 95 95 144 144 144 144 144 144 20 20 20 20 208 208 208 208
 208 49 49 49 49 49 49 72 72 72 72 72 95 95 95 144 144 144 144 144
 144 20 20 20 20 208 208 208 208 189 189 49 49 49 49 28 28 28 72 72
 72 72 95 95 144 144 144 144 128 128 128 20 20 20 208 208 208 208 208 189
 49 171 171 171 28 28 28 28 28 72 72 95 95 144 144 114 128 128 128 128
 128 128 20 113 208 208 208 208 189 171 171 171 171 28 28 28 28 28 28 28
 28 235 144 144 128 128 128 128 128 128 128 113 113 113 113 208 208 189 171 171
 171 171 28 28 28 28 28 28 28 235 235 181 243 128 128 128 128 128 128 128
 113 113 113 113 113 113 113 85 85 85 85 85 28 28 28 28 235 235 235 235
 181 243 243 243 128 128 128 128 128 113 113 113 113 113 113 21 85 85 85 85
 167 28 28 28 235 235 235 235 235 235 243 243 243 128 128 128 128 128 113 113
 113 21 21 21 21 21 85 167 167 167 167 167 235 235 235 235 235 235 235 243
 243 243 243 128 2 2 2 2 113 113 21 21 21 21 21 85 167 167 167 167
 167 235 235 235 235 235 235 235 243 243 243 243 243 2 2 2 2 2 21 21
 21 21 120 120 167 167 167 167 167 167 235 235 235 235 235 221 235 243 243 243
 243 243 2 2 2 2 2 4 120 120 120 201 201 8 8 8 167 187 187 187
 221 221 221 221 221 155 155 155 155 155 155 2 2 2 2 130 236 236 120 201
 201 201 8 8 8 8 187 187 187 221 221 221 221 155 155 155 155 155 155 155
 155 130 130 130 130 236 236 236 236 201 201 8 8 8 8 187 187 187 187 221
 221 221 155 155 155 155 155 155 155 130 130 130 130 130 236 236 236 236 236 201
 201 8 8 136 187 187 187 187 221 221 221 155 155 155 155 155 155 155 130 130
 130 130 203 203 236 236 236 236 201 201 8 136 136 136 187 187 187 187 221 221
 155 155 155 155 155 155 130 130 130 130 130 203 203 203 236 236 236 236 98 98
 136 136 136 136 187 187 187 221 154 155 155 155 155 155 155 130 130 130 130 130
 203 203 203 203 236 236 98 98 98 98 98 136 136 151 151 151 151 154 155 155
 155 155 155 155 130 130 130 130 130 130 203 203 30 30 30 98 98 98 98 98
 98 200 151 151 151 151 154 154 155 155 108 108 108 130 86 86 86 86 86 203
 214 30 30 30 98 98 98 98 98 200 200 151 151 151 151 151 154 154 108 108
 108 108 108 86 86 86 86 86 214 214 30 30 30 98 98 98 98 98 200 200
 151 151 151 151 151 154 154 108 108 108 108 108 86 86 86 86 86 214 214 214
 214 30 98 98 98 98 200 200 200 151 151 151 151 151 154 154 156 156 156 156
 156 86 112 112 86 67 214 214 214 214 173 98 98 98 98 200 200 200 151 151
 14 14 14 176 176 108 156 156 156 156 112 112 112 112 67 67 67 67 67 173
 173 173 173 173 200 200 200 14 14 14 14 14 176 176 174 174 174 83 83 112
 112 112 67 67 67 67 67 67 173 173 173 173 173 244 244 244 244 14 14 14
 14 176 174 174 174 174 83 83 83 112 112 67 67 67 67 67 67 173 173 173
 173 173 244 244 244 244 14 14 14 14 176 174 174 174 174 83 83 83 83 212
 67 67 67 67 67 67 173 173 173 173 173 244 244 244 244 150 150 14 14 176
 176 174 174 174 83 83 212 212 212 212 67 194 194 194 67 173 173 173 173 173
 1 244 244 150 150 150 95 95 95 144 144 144 144 144 212 212 212 212 212 194
 194 194 194 194 173 173 173 49 49 1 244 150 150 72 72 95 95 95 144 144
 144 144 144 212 212 212 212 212 194 194 194 194 189 189 49 49 49 49 110 72
 72 72 72 72 72 95 95 144 144 144 144 144 20 20 20 20 20 20 208 189
 189 189 189 189 49 49 49 110 110 72 72 72 72 72 72 95 144 144 144 144
 144 20 20 20 20 20 20 208 189 189 189 189 189 171 171 171 110 110 72 72
 72 72 72 72 95 144 144 144 144 128 128 20 20 20 20 20 20 208 189 189
 189 189 171 171 171 171 28 28 72 72 72 72 72 235 144 144 128 128 128 128
 128 128 20 20 20 20 208 189 189 189 189 171 171 171 171 28 28 28 28 72
 72 72 235 235 128 128 128 128 128 128 128 128 20 20 20 113 189 189 189 171
 171 171 85 85 28 28 28 28 28 235 235 235 235 243 128 128 128 128 128 128
 128 128 113 113 113 113 21 85 85 85 85 85 85 28 28 28 28 235 235 235
 235 235 243 243 243 128 128 128 128 128 128 113 113 113 21 21 21 85 85 85
 85 167 167 167 28 235 235 235 235 235 235 243 243 118 118 128 128 2 2 2
 2 21 21 21 21 21 21 55 85 167 167 167 167 235 235 235 235 235 235 235
 243 243 118 118 118 2 2 2 2 2 21 21 21 21 21 21 55 167 167 167
 167 167 235 235 235 235 235 235 235 243 243 118 118 118 2 2 2 2 2 21
 21 21 21 21 21 55 167 167 167 167 167 235 235 235 235 235 235 235 243 243
 118 118 2 2 2 2 2 2 4 21 21 21 201 201 201 8 8 167 167 187
 187 221 221 221 221 155 155 155 155 155 155 155 2 2 2 2 4 4 236 21
 201 201 201 201 8 8 8 187 187 187 221 221 221 221 155 155 155 155 155 155
 155 26 26 2 2 4 236 236 236 201 201 201 201 8 8 8 187 187 187 187
 221 221 221 155 155 155 155 155 155 155 26 26 130 130 203 203 236 236 236 201
 201 201 8 8 8 187 187 187 187 187 221 221 155 155 155 155 155 155 155 26
 130 130 130 203 203 203 236 236 236 201 201 8 8 136 136 187 187 187 187 221
 221 155 155 155 155 155 155 155 130 130 130 130 203 203 203 203 236 236 201 201
 98 136 136 136 187 187 187 207 207 154 155 155 155 155 155 155 130 130 130 130
 130 203 203 203 203 203 236 98 98 98 98 98 136 187 187 151 151 154 154 154