# vtk DataFile Version 2.0
Data set from ImportExport Version 6.5.171.b0b162591
ASCII

DATASET RECTILINEAR_GRID
DIMENSIONS 30 30 30
X_COORDINATES 30 float
-1.250000 1.250000 3.750000 6.250000 8.750000 11.250000 13.750000 16.250000 18.750000 21.250000 23.750000 26.250000 28.750000 31.250000 33.750000 36.250000 38.750000 41.250000 43.750000 46.250000 48.750000 
51.250000 53.750000 56.250000 58.750000 61.250000 63.750000 66.250000 68.750000 71.250000 
Y_COORDINATES 30 float
-1.250000 1.250000 3.750000 6.250000 8.750000 11.250000 13.750000 16.250000 18.750000 21.250000 23.750000 26.250000 28.750000 31.250000 33.750000 36.250000 38.750000 41.250000 43.750000 46.250000 48.750000 
51.250000 53.750000 56.250000 58.750000 61.250000 63.750000 66.250000 68.750000 71.250000 
Z_COORDINATES 30 float
-1.250000 1.250000 3.750000 6.250000 8.750000 11.250000 13.750000 16.250000 18.750000 21.250000 23.750000 26.250000 28.750000 31.250000 33.750000 36.250000 38.750000 41.250000 43.750000 46.250000 48.750000 
51.250000 53.750000 56.250000 58.750000 61.250000 63.750000 66.250000 68.750000 71.250000 
CELL_DATA 24389
SCALARS FeatureIds int 1
LOOKUP_TABLE default
 217 217 33 33 33 33 33 33 169 169 169 169 169 169 169 169 169 184 184 184
 184 184 79 79 79 79 79 217 217 217 217 33 33 33 33 166 166 169 169 169
 169 169 169 169 169 169 184 184 184 184 184 184 79 79 79 217 217 217 217 217
 217 33 166 166 166 166 166 169 169 169 169 169 169 102 102 184 184 184 184 184
 184 79 31 31 31 217 217 217 217 217 166 166 166 166 166 166 102 102 102 102
 102 102 102 102 184 184 184 184 161 161 161 31 31 31 217 217 217 217 217 166
 166 166 166 166 166 102 102 102 102 102 102 102 102 102 184 161 161 161 161 161
 31 31 31 31 217 217 217 217 166 166 166 166 166 154 154 154 154 154 154 154
 154 154 154 161 161 161 161 161 116 116 31 31 31 31 20 20 20 20 20 166
 166 166 154 154 154 154 154 154 154 154 154 154 161 161 161 161 116 116 116 31
 31 31 31 20 20 20 20 20 20 20 20 154 154 154 154 154 154 154 154 154
 154 161 161 161 116 116 116 116 116 31 31 31 20 20 20 20 20 20 20 20
 154 154 154 154 154 154 154 154 154 154 107 107 161 116 116 116 116 116 216 216
 216 20 20 20 20 20 20 20 20 154 154 154 154 154 154 154 154 154 154 107
 107 107 116 116 116 116 216 216 216 216 20 20 20 20 20 20 20 229 229 229
 154 144 144 144 144 144 154 154 107 107 46 46 116 215 215 215 216 216 216 20
 20 20 20 20 20 20 229 229 229 25 25 25 144 144 144 154 8 8 46 46
 46 46 42 42 42 216 216 216 20 20 183 183 183 20 229 229 229 229 25 25
 25 25 144 144 8 8 8 46 46 46 46 42 42 42 42 220 220 20 20 183
 183 183 20 229 229 229 229 25 25 25 25 25 8 8 8 8 8 46 46 46
 42 42 42 42 220 220 21 238 238 238 238 238 229 229 229 229 25 25 25 25
 25 8 8 8 8 8 8 46 46 46 42 42 220 220 220 21 21 21 238 238
 238 55 55 229 229 25 25 25 25 189 189 189 8 8 8 8 8 46 46 198
 198 198 220 220 21 21 21 21 238 238 55 55 229 229 25 25 25 189 189 189
 189 189 8 8 8 8 46 198 198 198 198 198 29 21 21 21 21 233 233 233
 55 101 109 109 109 189 189 189 189 189 189 8 8 8 8 46 198 198 198 198
 29 29 21 21 21 21 233 233 233 233 101 101 101 28 28 28 189 189 189 189
 8 8 8 8 125 198 198 198 29 29 29 29 56 56 233 233 233 233 233 233
 101 53 28 28 28 28 157 157 189 74 74 74 125 125 125 125 29 29 29 29
 29 56 56 233 233 233 233 233 233 53 53 53 28 28 28 157 157 157 74 74
 74 125 125 125 125 29 29 29 29 29 56 233 233 233 233 233 233 53 53 53
 53 53 53 53 53 157 74 74 74 74 125 125 125 125 125 29 29 29 29 124
 233 233 233 233 233 233 68 53 53 53 53 53 53 53 53 74 74 74 74 125
 125 125 125 125 29 29 29 1 1 233 233 233 233 233 68 68 68 53 53 53
 53 53 53 53 53 74 74 153 153 153 153 153 153 153 29 29 1 1 1 233
 233 233 233 68 68 68 53 53 53 53 53 53 152 152 153 153 153 153 153 153
 153 153 153 1 1 1 1 96 96 233 233 129 129 68 53 53 53 53 53 53
 152 152 152 152 153 153 153 153 153 153 153 153 1 1 1 1 1 1 1 129
 129 129 129 53 53 53 53 53 152 152 152 152 152 153 153 153 153 153 153 153
 153 1 1 1 1 1 1 33 33 129 129 129 129 169 169 169 169 169 169 152
 152 184 184 153 153 153 79 79 153 153 1 1 1 1 1 33 33 33 129 129
 129 129 169 169 169 169 169 169 169 184 184 184 184 184 79 79 79 153 153 1
 1 217 217 217 33 33 33 166 129 129 169 169 169 169 169 169 169 169 184 184
 184 184 184 79 79 79 79 79 217 217 217 217 217 217 166 166 166 166 166 169
 169 169 169 169 169 169 169 184 184 184 184 184 79 79 79 79 217 217 217 217
 217 217 217 166 166 166 166 166 169 169 169 169 102 102 102 102 184 184 184 184
 184 184 79 79 242 217 217 217 217 217 217 217 166 166 166 166 166 102 102 102
 102 102 102 102 102 184 184 184 184 161 161 161 31 31 217 217 217 217 217 217
 217 166 166 166 166 166 102 102 102 102 102 102 102 102 184 184 161 161 161 161
 161 31 31 31 217 217 217 217 217 217 166 166 166 166 166 154 154 154 154 154
 154 154 154 154 161 161 161 161 161 116 116 116 31 31 217 217 217 20 20 20
 166 166 166 154 154 154 154 154 154 154 154 154 154 161 161 161 161 116 116 116
 116 116 31 217 20 20 20 20 20 20 20 20 154 154 154 154 154 103 154 154
 154 154 107 107 161 116 116 116 116 116 116 116 217 20 20 20 20 20 20 20
 20 154 154 154 154 154 154 154 154 154 107 107 107 107 116 116 116 116 116 116
 116 208 20 20 20 20 20 20 20 20 20 154 154 154 154 154 154 154 154 107
 107 107 107 116 116 116 116 116 216 216 216 20 20 20 20 20 20 20 20 229
 229 154 154 154 154 154 154 154 107 107 107 107 107 116 116 116 215 216 216 216
 20 20 20 20 20 20 20 229 229 229 25 25 25 25 144 154 154 107 107 107
 46 46 46 42 42 42 42 220 220 20 20 20 20 20 20 229 229 229 229 25
 25 25 25 25 25 8 8 8 8 46 46 46 42 42 42 42 220 220 220 238
 238 238 238 238 229 229 229 229 25 25 25 25 25 25 8 8 8 8 46 46
 46 42 42 42 220 220 220 220 238 238 238 238 238 229 229 229 229 25 25 25
 25 25 8 8 8 8 8 8 46 46 46 42 220 220 220 220 21 238 238 238
 238 238 229 229 229 229 25 25 25 25 189 189 189 8 8 8 8 8 46 46
 220 220 220 220 220 21 21 21 238 238 238 238 109 109 109 109 109 109 189 189
 189 189 189 8 8 8 8 46 46 198 220 220 220 220 21 21 21 21 238 233
 233 233 101 109 109 109 109 189 189 189 189 189 8 8 8 8 46 198 198 198
 220 29 21 21 21 21 21 233 233 233 233 101 101 101 109 28 189 189 189 189
 189 8 8 8 8 125 125 198 29 29 29 29 29 56 56 233 233 233 233 233
 101 101 101 101 28 189 189 189 189 189 189 74 125 125 125 125 125 29 29 29
 29 29 56 233 233 233 233 233 233 101 101 101 53 53 28 28 157 157 189 74
 74 125 125 125 125 125 125 29 29 29 124 124 233 233 233 233 233 233 68 53
 53 53 53 53 53 53 157 74 74 74 74 125 125 125 125 125 29 29 29 124
 124 124 233 233 233 233 233 68 68 53 53 53 53 53 53 53 53 74 74 125
 125 125 125 125 125 29 29 29 124 124 124 233 233 233 233 68 68 68 53 53
 53 53 53 53 152 152 74 74 153 153 153 153 153 153 153 124 124 1 124 124
 233 233 233 233 68 68 68 53 53 53 53 53 152 152 152 152 153 153 153 153
 153 153 153 153 1 1 1 1 1 1 233 233 129 129 68 53 53 53 53 53
 152 152 152 152 152 153 153 153 153 153 153 153 153 1 1 1 1 1 1 129
 129 129 129 129 129 53 53 53 152 152 152 152 152 152 153 153 153 153 153 153
 153 153 1 1 1 1 1 1 33 129 129 129 129 129 169 169 169 169 152 152
 152 152 184 184 153 153 79 79 79 153 153 1 1 1 1 1 33 33 129 129
 129 129 129 169 169 169 169 169 169 152 184 184 184 184 184 79 79 79 153 153
 1 1 217 217 217 217 175 129 129 129 129 129 169 169 169 169 169 169 169 184
 184 184 184 184 79 79 79 79 79 217 217 217 217 217 217 166 166 166 129 129
 169 169 169 169 169 169 169 169 184 184 184 184 184 184 79 79 242 217 217 217
 217 217 217 217 166 166 166 166 166 102 102 102 102 102 169 169 169 184 184 184
 184 184 184 79 242 242 217 217 217 217 217 217 217 166 166 166 166 166 102 102
 102 102 102 102 102 102 184 184 184 184 161 161 161 161 242 217 217 217 217 217
 217 217 166 166 166 166 10 102 102 102 102 102 102 102 102 184 184 161 161 161
 161 161 161 242 217 217 217 217 217 217 217 166 166 166 10 10 154 154 154 154
 154 154 154 154 154 161 161 161 161 161 116 116 116 217 217 217 217 217 217 217
 20 166 10 10 10 154 154 154 154 154 154 154 154 154 161 161 161 161 116 116
 116 116 116 208 217 217 20 20 20 20 20 20 10 160 154 154 154 154 154 154
 154 154 107 107 107 107 116 116 116 116 116 116 208 208 20 20 20 20 20 20
 20 160 160 154 154 154 154 154 154 154 154 107 107 107 107 116 116 116 116 116
 116 208 208 20 20 20 20 20 20 20 20 160 154 154 154 154 154 154 154 154
 107 107 107 107 107 116 116 116 116 116 208 208 20 20 20 20 20 20 20 229
 229 229 154 154 154 154 154 154 154 107 107 107 107 107 116 116 116 116 116 220
 220 20 20 20 20 20 20 20 229 229 229 25 25 25 25 154 154 214 107 107
 107 107 46 46 42 42 42 220 220 220 20 20 20 20 20 20 229 229 229 229
 25 25 25 25 25 214 214 205 205 205 46 46 46 42 42 42 220 220 220 220
 238 238 238 238 238 229 229 229 229 25 25 25 25 25 214 214 205 205 205 46
 46 46 46 42 220 220 220 220 220 238 238 238 238 238 238 229 229 229 25 25
 25 25 25 189 8 8 8 8 8 46 46 46 42 220 220 220 220 220 238 238
 238 238 238 238 109 109 109 109 25 25 25 189 189 189 8 8 8 8 46 46
 46 220 220 220 220 220 21 21 238 238 238 238 238 109 109 109 109 109 109 189
 189 189 189 189 8 8 8 8 46 226 220 220 220 220 220 21 21 21 238 238
 238 238 101 101 109 109 109 109 189 189 189 189 189 8 8 8 8 46 226 226
 226 220 220 220 21 21 21 238 238 233 233 101 101 101 101 109 109 189 189 189
 189 189 189 8 8 125 125 125 125 226 29 29 29 21 21 21 233 233 233 233
 101 101 101 101 101 101 189 189 189 189 189 189 74 125 125 125 125 125 125 29
 29 29 124 124 233 233 233 233 233 233 101 101 101 101 101 53 189 189 189 189
 74 74 125 125 125 125 125 125 29 29 29 124 124 124 233 233 233 233 233 68
 53 53 53 53 53 53 181 181 181 74 58 125 125 125 125 125 125 29 29 124
 124 124 124 233 233 233 233 233 68 53 53 53 53 53 53 53 152 152 58 58
 125 125 125 125 125 125 125 124 124 124 124 124 124 233 233 233 68 68 68 53
 53 53 53 53 152 152 152 152 58 153 153 153 153 153 153 153 124 124 124 124
 124 124 233 233 233 68 68 68 53 53 53 53 152 152 152 152 152 153 153 153
 153 153 153 153 153 1 124 1 1 124 124 233 129 129 129 129 53 53 53 53
 53 152 152 152 152 152 153 153 153 153 153 153 153 153 1 1 1 1 1 1
 129 129 129 129 129 129 53 53 53 152 152 152 152 152 152 153 153 153 153 153
 153 153 153 1 1 1 1 1 244 129 129 129 129 129 129 53 53 169 169 152
 152 152 152 152 184 153 153 79 79 79 153 153 1 1 1 1 1 175 129 129
 129 129 129 129 129 169 169 169 169 169 152 152 184 184 184 184 79 79 79 153
 153 1 1 217 217 175 175 175 244 129 129 129 129 129 169 169 169 169 169 169
 184 184 184 184 202 202 79 79 242 242 217 217 217 217 217 175 175 175 129 129
 129 129 169 169 169 169 169 169 169 184 184 184 184 202 202 202 242 242 242 217
 217 217 217 217 217 175 175 166 166 166 102 102 102 102 169 169 169 169 184 184
 184 184 202 202 202 242 242 242 217 217 217 217 217 217 217 166 166 166 10 10
 102 102 102 102 102 102 102 184 184 184 184 161 161 161 242 242 242 217 217 217
 217 217 217 217 166 10 10 10 10 102 102 102 102 102 102 102 184 184 161 161
 161 161 161 242 242 242 217 217 217 217 217 217 217 166 10 10 10 160 154 154
 154 154 154 154 154 154 161 161 161 161 161 116 116 242 208 208 217 217 217 217
 217 20 10 10 10 10 160 160 154 154 154 154 154 154 154 107 107 161 161 116
 116 116 116 208 208 208 217 20 20 20 20 20 10 10 160 160 160 230 154 154
 154 154 154 107 107 107 107 107 116 116 116 116 208 208 208 20 20 20 20 20
 20 20 160 160 160 160 154 154 154 154 154 154 107 107 107 107 107 116 116 116
 116 208 208 208 20 20 20 20 20 20 20 160 160 160 154 154 154 154 154 154
 154 107 107 107 107 107 116 116 116 116 208 208 208 20 20 20 20 20 20 20
 82 229 229 25 154 154 154 154 154 107 107 107 107 107 107 107 116 116 116 208
 208 208 20 20 20 20 20 20 82 82 229 229 25 25 25 25 154 214 214 214
 107 107 107 205 46 42 42 42 220 220 220 220 20 20 20 20 82 82 229 229
 229 25 25 25 25 25 214 214 214 205 205 205 205 46 42 42 220 220 220 220
 220 238 238 238 238 238 229 229 229 229 25 25 25 25 25 214 214 214 205 205
 205 46 46 46 42 220 220 220 220 220 238 238 238 238 238 238 229 229 229 25
 25 25 25 25 214 214 214 205 205 205 205 46 46 220 220 220 220 220 220 238
 238 238 238 238 238 109 109 109 109 109 109 25 189 214 214 214 205 205 205 205
 46 226 226 220 220 220 220 21 238 238 238 238 238 238 109 109 109 109 109 109
 189 189 189 189 189 8 8 8 8 226 226 226 226 220 220 220 21 238 238 238
 238 238 238 101 101 109 109 109 109 189 189 189 189 17 17 8 8 151 151 226
 226 226 226 220 220 21 21 21 238 238 233 101 101 101 101 101 109 109 189 189
 189 189 17 17 17 17 151 151 151 226 226 226 226 226 21 21 21 233 233 233
 233 101 101 101 101 101 101 189 189 189 189 17 17 17 151 151 151 151 151 226
 226 226 226 124 124 124 233 233 233 233 44 101 101 101 101 101 181 181 181 181
 181 17 58 125 125 125 125 125 125 226 124 124 124 124 124 233 233 233 233 44
 44 101 101 53 53 53 181 181 181 181 58 58 58 58 125 125 125 125 29 124
 124 124 124 124 124 233 233 233 44 53 53 53 53 53 53 181 181 181 152 58
 58 58 58 58 125 125 125 125 124 124 124 124 124 124 197 197 197 197 53 53
 53 53 53 53 152 152 152 152 58 58 58 58 58 153 153 153 153 124 124 124
 124 124 124 197 197 197 197 53 53 53 53 53 53 152 152 152 152 152 58 58
 58 153 153 153 153 153 124 124 124 124 124 124 197 129 129 129 129 53 53 53
 53 152 152 152 152 152 152 58 58 153 153 153 153 153 153 1 124 1 1 124
 244 244 129 129 129 129 129 53 53 53 152 152 152 152 152 152 153 153 153 153
 153 153 153 153 1 1 1 1 244 244 244 244 129 129 129 129 53 53 53 152
 152 152 152 152 152 184 153 153 153 153 153 153 153 1 1 1 1 175 175 244
 244 129 129 129 129 129 169 169 169 169 152 152 152 184 184 184 202 79 79 79
 153 153 1 1 217 175 175 175 175 244 244 129 129 129 129 169 169 169 169 169
 169 184 184 202 202 202 202 202 242 242 242 242 217 217 217 175 175 175 175 244
 129 129 129 169 169 169 169 169 169 169 184 184 202 202 202 202 202 242 242 242
 242 217 217 217 217 175 175 175 175 10 10 10 102 102 169 169 169 169 169 184
 184 202 202 202 202 202 242 242 242 242 217 217 217 217 217 175 175 10 10 10
 10 102 102 102 102 102 102 102 184 184 184 202 202 202 202 242 242 242 242 217
 217 217 217 217 217 10 10 10 10 10 10 102 102 102 102 80 80 80 184 161
 161 161 161 242 242 242 242 242 217 217 217 217 217 217 10 10 10 10 160 160
 230 154 154 154 154 80 80 107 107 161 161 161 116 242 242 242 208 208 208 217
 217 217 10 10 10 10 10 160 160 230 230 154 154 154 154 154 107 107 107 161
 116 116 116 208 208 208 208 208 217 20 20 20 10 10 10 160 160 160 230 230
 154 154 154 154 107 107 107 107 107 116 116 116 208 208 208 208 208 20 20 20
 20 82 10 160 160 160 160 230 230 154 154 154 154 107 107 107 107 107 116 116
 116 208 208 208 208 208 20 20 20 82 82 82 160 160 160 160 230 230 154 154
 154 107 107 107 107 107 107 107 116 116 208 208 208 208 20 20 20 82 82 82
 82 82 160 160 160 230 154 154 154 154 107 107 107 107 107 107 107 116 116 208
 208 208 208 220 20 82 82 82 82 82 82 82 229 25 25 25 25 154 214 214
 214 214 107 107 107 107 42 42 220 220 220 84 220 238 238 82 82 82 82 82
 229 229 25 25 25 25 214 214 214 214 214 205 205 205 46 42 224 224 220 220
 220 220 238 238 238 238 82 82 82 229 229 25 25 25 25 214 214 214 214 214
 205 205 205 46 224 224 224 220 220 220 220 238 238 238 238 238 238 86 86 109
 109 25 25 25 214 214 214 214 205 205 205 205 46 224 224 220 220 220 220 220
 238 238 238 238 238 238 86 86 109 109 109 109 109 214 214 214 214 205 205 205
 205 226 226 226 220 220 220 220 220 238 238 238 238 238 238 86 86 86 109 109
 109 109 189 189 17 17 17 17 205 205 226 226 226 226 226 220 220 21 238 238
 238 238 238 238 86 86 86 109 109 109 189 189 17 17 17 17 17 17 151 151
 226 226 226 226 226 226 21 238 238 238 238 238 101 101 101 101 101 109 109 189
 189 17 17 17 17 17 17 151 151 151 226 226 226 226 226 124 124 238 238 233
 44 44 44 101 101 101 101 101 181 181 181 17 17 17 17 151 151 151 151 151
 226 226 226 226 124 124 124 233 233 44 44 44 44 101 101 101 101 181 181 181
 181 181 17 58 58 151 151 151 151 151 226 226 226 124 124 124 124 197 197 44
 44 44 44 101 101 181 181 181 181 234 234 234 58 58 58 58 151 151 151 226
 124 124 124 124 124 124 197 197 197 44 44 44 53 53 53 181 181 181 234 234
 58 58 58 58 58 58 58 58 124 124 124 124 124 124 124 197 197 197 197 44
 53 53 53 53 53 152 152 152 152 58 58 58 58 58 58 58 153 153 124 124
 124 124 124 124 197 197 197 197 53 53 53 53 53 152 152 152 152 152 58 58
 58 58 58 58 153 153 153 124 124 124 124 124 124 197 197 129 129 129 53 53
 53 53 152 152 152 152 152 152 58 58 58 58 153 153 153 153 124 124 1 124
 124 244 244 244 129 129 129 129 53 53 53 152 152 152 152 152 152 58 58 153
 153 153 153 153 153 1 1 1 175 244 244 244 244 129 129 129 129 129 53 53
 152 152 152 152 152 152 202 202 202 153 153 153 186 186 1 1 175 175 175 175
 244 244 244 129 129 129 129 169 169 169 169 152 152 152 152 202 202 202 202 79
 186 186 186 1 1 148 175 175 175 175 175 244 129 129 129 128 128 128 128 128
 128 128 128 202 202 202 202 202 202 202 242 242 242 148 148 148 175 175 175 175
 244 129 129 128 128 128 128 128 128 128 128 128 202 202 202 202 202 202 242 242
 242 242 148 148 148 148 175 175 175 175 10 10 10 128 128 128 128 128 128 128
 128 202 202 202 202 202 202 242 242 242 242 148 148 148 148 148 175 175 10 10
 10 10 72 72 128 128 128 80 80 80 202 202 202 202 202 242 242 242 242 242
 148 148 148 148 148 217 10 10 10 10 10 72 72 72 72 80 80 80 80 80
 111 111 111 111 242 242 242 242 242 148 148 148 148 148 148 10 10 10 10 160
 72 72 72 72 80 80 80 80 80 111 111 111 111 111 242 242 242 208 208 208
 148 148 148 10 10 10 10 160 160 160 230 230 230 80 80 80 80 107 107 111
 111 111 112 112 112 208 208 208 208 148 148 148 10 10 10 160 160 160 160 230
 230 230 80 80 80 211 107 107 107 111 111 112 112 112 208 208 208 208 156 156
 82 82 82 82 160 160 160 160 230 230 230 154 211 211 211 107 107 107 107 112
 112 112 208 208 208 208 156 156 156 82 82 82 82 82 160 160 160 230 230 230
 154 211 211 211 211 107 107 107 107 112 112 208 208 208 208 156 156 156 82 82
 82 82 82 82 160 160 230 230 230 154 211 211 211 107 107 107 107 192 192 112
 84 84 84 84 84 156 82 82 82 82 82 82 82 82 240 240 240 240 38 214
 214 214 214 214 107 192 192 192 84 84 84 84 84 224 224 82 82 82 82 82
 82 82 240 240 240 240 240 38 214 214 214 214 214 205 205 205 224 224 224 224
 224 224 224 224 238 82 82 82 82 82 82 240 240 240 240 240 38 214 214 214
 214 214 205 205 205 224 224 224 224 224 224 224 238 238 238 43 43 43 43 86
 240 240 240 240 240 38 214 214 214 214 205 205 205 205 224 224 224 224 224 224
 224 238 238 238 43 43 43 86 86 86 86 109 109 52 38 214 214 214 214 205
 205 205 226 226 226 224 224 224 224 224 238 238 238 43 43 43 86 86 86 86
 109 109 109 17 17 17 17 17 17 205 226 226 226 226 226 226 224 224 81 81
 81 81 81 43 43 86 86 86 86 109 109 52 17 17 17 17 17 17 17 151
 151 226 226 226 226 226 226 81 81 81 81 81 81 86 86 86 86 86 109 52
 52 17 17 17 17 17 17 17 151 151 151 226 226 226 226 226 124 124 81 81
 81 44 44 44 44 101 101 101 52 181 181 181 17 17 17 17 17 151 151 151
 151 226 226 226 226 124 124 124 81 44 44 44 44 44 44 101 101 234 234 234
 181 181 181 17 58 58 151 151 151 151 151 226 226 226 124 124 124 197 197 197
 44 44 44 44 101 101 234 234 234 181 234 234 58 58 58 58 58 151 151 151
 226 226 124 124 124 124 197 197 197 197 44 44 44 53 53 53 181 181 181 234
 234 58 58 58 58 58 58 58 58 58 124 124 124 124 124 197 197 197 197 197
 44 44 53 53 53 181 181 181 181 234 58 58 58 58 58 58 58 58 58 124
 124 124 124 124 197 197 197 197 197 53 53 53 53 53 152 152 152 152 152 58
 58 58 58 58 58 58 58 58 124 124 124 124 124 197 197 197 197 197 129 53
 53 53 53 152 152 152 152 152 58 58 58 58 58 58 186 186 186 124 124 124
 124 244 244 244 244 244 129 129 129 53 53 53 152 152 152 152 152 152 58 58
 58 186 186 186 186 186 186 1 175 175 244 244 244 244 244 129 129 129 129 53
 128 128 152 152 152 152 59 202 202 186 186 186 186 186 186 186 1 175 175 175
 175 244 244 244 129 129 129 129 128 128 128 128 128 152 59 59 202 202 202 202
 186 186 186 186 186 1 148 175 175 175 175 175 244 129 129 128 128 128 128 128
 128 128 128 59 194 194 194 194 194 186 186 186 186 242 242 148 148 175 175 175
 175 244 129 10 128 128 128 128 128 128 128 128 59 194 194 194 194 194 194 242
 242 242 242 242 148 148 148 175 175 175 175 10 10 72 128 128 128 128 128 128
 128 128 194 194 194 194 194 194 242 242 242 242 242 148 148 148 148 175 175 10
 10 10 72 72 72 128 128 128 80 80 80 194 194 194 194 194 242 242 242 242
 242 242 148 148 148 148 175 10 10 10 10 72 72 72 72 80 80 80 80 80
 80 111 111 111 111 111 242 242 242 242 242 148 148 148 148 148 10 10 10 10
 72 72 72 72 72 80 80 80 80 80 111 111 111 111 111 112 242 242 242 208
 208 148 148 148 10 10 10 10 160 160 72 72 72 72 80 80 80 80 80 111
 111 111 111 112 112 112 112 208 208 208 156 156 82 82 10 10 160 160 160 160
 230 230 230 80 80 80 211 211 111 111 111 111 112 112 112 112 208 208 156 156
 156 82 82 82 82 160 160 160 160 230 230 230 80 211 211 211 211 211 107 111
 112 112 112 112 208 208 208 156 156 156 82 82 82 82 82 160 160 160 230 230
 230 211 211 211 211 211 211 192 192 192 112 112 112 208 208 208 156 156 156 82
 82 82 82 82 82 160 160 230 240 240 211 211 211 211 211 211 192 192 192 192
 112 84 84 84 84 84 156 82 82 82 82 82 82 82 240 240 240 240 240 38
 38 211 214 214 192 192 192 192 192 84 84 84 84 84 84 84 82 82 82 82
 82 82 82 240 240 240 240 240 38 38 214 214 214 214 192 192 192 192 224 224
 84 84 84 224 224 82 82 82 82 82 82 82 240 240 240 240 240 38 38 214
 214 214 214 205 205 205 224 224 224 224 224 224 224 224 238 43 43 43 43 43
 43 240 240 240 240 240 38 38 214 214 214 214 205 205 224 224 224 224 224 224
 224 224 224 81 43 43 43 43 43 86 86 86 52 52 52 38 38 214 214 214
 214 205 226 226 226 224 224 224 224 224 224 81 81 81 43 43 43 43 86 86
 86 52 52 52 52 16 16 16 16 16 16 16 226 226 226 226 224 224 224 81
 81 81 81 81 43 43 86 86 86 86 52 52 52 52 16 16 17 16 16 16
 173 173 226 226 226 226 226 226 81 81 81 81 81 81 43 86 86 86 86 52
 52 52 52 16 17 17 17 16 16 173 173 173 226 226 226 226 226 81 81 81
 81 81 44 44 44 44 86 52 52 52 52 181 181 17 17 17 16 16 151 151
 173 173 226 226 226 226 124 124 81 81 44 44 44 44 44 44 52 52 52 234
 234 181 181 181 17 16 58 151 151 173 173 173 226 226 226 124 124 124 197 197
 197 44 44 44 44 44 52 234 234 234 181 181 181 181 58 58 58 58 173 173
 173 226 226 124 124 124 124 197 197 197 197 44 44 44 44 91 181 181 181 181
 181 181 58 58 58 58 58 58 58 58 58 124 124 124 124 124 197 197 197 197
 197 44 44 91 91 91 181 181 181 181 58 58 58 58 58 58 58 58 58 58
 124 124 195 195 124 197 197 197 197 197 44 91 91 91 91 152 152 152 152 152
 58 58 58 58 58 58 58 186 186 195 195 195 195 195 197 197 197 197 197 129
 91 91 91 91 91 152 152 152 59 58 58 58 58 58 186 186 186 186 195 195
 195 195 195 244 244 244 244 244 129 91 91 91 91 91 152 152 59 59 59 58
 58 186 186 186 186 186 186 195 195 195 195 244 244 244 244 244 244 129 91 91
 91 128 128 128 59 59 59 59 59 186 186 186 186 186 186 186 186 195 175 175
 175 175 244 244 244 244 129 129 91 128 128 128 128 128 59 59 59 194 194 194
 186 186 186 186 186 186 195 64 175 175 175 175 27 27 27 27 128 128 128 128
 128 128 128 59 59 59 194 194 194 194 186 186 186 186 242 242 64 64 175 175
 175 175 27 27 128 128 128 128 128 128 128 128 128 59 59 194 194 194 194 194
 242 242 242 242 242 64 64 64 175 175 175 175 10 10 72 128 128 128 128 128
 128 128 59 194 194 194 194 194 194 242 242 242 242 242 64 64 64 64 175 175
 10 10 10 72 72 72 128 128 128 80 80 80 194 194 194 194 194 194 242 242
 242 242 242 64 64 64 64 64 10 10 10 10 72 72 72 72 72 80 80 80
 80 80 111 111 111 111 111 242 242 242 242 242 64 64 64 64 64 10 10 10
 10 72 72 72 72 72 80 80 80 80 80 111 111 111 111 111 112 112 242 242
 242 208 148 64 64 209 209 209 209 209 72 72 72 72 72 80 80 80 80 80
 111 111 111 111 112 112 112 112 208 208 208 156 156 156 209 209 209 209 209 160
 72 72 72 72 80 80 80 211 211 111 111 111 111 112 112 112 112 208 208 156
 156 156 156 82 82 209 209 209 160 160 230 230 230 80 211 211 211 211 211 192
 192 111 112 112 112 112 208 208 156 156 156 82 82 82 82 82 209 160 160 230
 230 230 211 211 211 211 211 211 192 192 192 112 112 112 112 84 156 156 156 156
 82 82 82 82 82 82 82 240 240 240 240 211 211 211 211 211 192 192 192 192
 192 112 84 84 84 84 84 156 82 82 82 82 82 82 82 240 240 240 240 240
 38 38 38 211 211 192 192 192 192 192 192 84 84 84 84 84 156 82 82 82
 82 82 82 82 240 240 240 240 240 38 38 38 214 214 192 192 192 192 192 84
 84 84 84 84 224 224 82 82 82 82 82 82 82 240 240 240 240 240 38 38
 38 214 214 214 192 192 192 224 224 224 224 224 224 224 224 43 43 43 43 43
 43 82 240 240 240 240 240 38 38 38 214 214 214 214 192 192 224 224 224 224
 224 224 224 81 81 43 43 43 43 43 86 52 52 52 52 52 38 38 38 16
 16 16 16 16 226 226 224 224 224 224 224 81 81 81 81 43 43 43 43 86
 52 52 52 52 52 52 16 16 16 16 16 16 16 226 226 226 226 224 224 224
 81 81 81 81 81 43 43 43 86 52 52 52 52 52 52 16 16 16 16 16
 16 173 173 173 226 226 226 226 224 81 81 81 81 81 81 43 52 52 52 52
 52 52 52 52 16 16 16 16 16 16 173 173 173 173 226 226 226 226 81 81
 81 81 81 81 44 44 52 52 52 52 52 52 52 16 16 16 16 16 16 173
 173 173 173 173 226 226 226 185 185 81 81 81 44 44 44 44 52 52 52 52
 52 181 181 181 16 16 16 173 173 173 173 173 173 173 226 226 185 185 185 197
 197 197 44 44 44 44 52 52 52 234 181 181 181 181 16 106 106 106 106 173
 173 173 173 185 185 185 185 185 197 197 197 197 44 44 44 91 91 91 181 181
 181 181 181 106 106 106 106 106 106 173 173 173 185 185 185 185 185 197 197 197
 197 197 44 91 91 91 91 91 181 181 181 181 58 106 106 106 106 106 58 58
 58 195 195 195 195 195 195 197 197 197 197 91 91 91 91 91 91 91 59 59
 59 106 106 106 106 106 106 106 186 195 195 195 195 195 195 195 27 27 27 27
 91 91 91 91 91 91 91 59 59 59 59 106 106 106 186 186 186 186 186 195
 195 195 195 195 27 27 27 27 27 27 91 91 91 91 91 91 59 59 59 59
 59 106 186 186 186 186 186 186 195 195 195 195 195 27 27 27 27 27 27 91
 91 91 91 128 128 59 59 59 59 59 59 186 186 186 186 186 186 195 195 195
 195 27 27 27 27 27 27 27 91 91 128 128 128 128 128 59 59 59 59 194
 194 186 186 186 186 186 186 195 64 64 175 27 27 27 27 27 27 27 128 128
 128 128 128 128 59 59 59 194 194 194 194 186 186 186 186 242 64 64 64 64
 64 27 27 27 27 27 128 128 128 128 128 128 128 59 59 59 194 194 194 194
 194 186 242 242 242 64 64 64 64 64 175 27 27 222 222 72 128 128 128 128
 128 128 128 59 194 194 194 194 194 194 242 242 242 242 64 64 64 64 64 64
 222 222 10 222 72 72 72 128 128 128 80 80 80 80 113 113 113 113 113 242
 242 242 242 64 64 64 64 64 64 209 209 209 209 72 72 72 72 72 80 80
 80 80 80 113 113 113 113 113 242 242 242 242 64 64 64 64 64 64 209 209
 209 209 72 72 72 72 72 80 80 80 80 80 113 113 113 113 113 112 112 112
 242 64 64 64 64 64 209 209 209 209 209 209 72 72 72 72 80 80 80 80
 80 113 113 113 113 112 112 112 112 112 208 208 156 156 156 209 209 209 209 209
 209 72 72 72 72 80 80 80 211 211 113 113 113 113 112 112 112 112 112 208
 156 156 156 156 82 209 209 209 209 209 209 230 230 230 80 211 211 211 211 211
 192 192 192 112 112 112 112 112 208 156 156 156 82 82 82 82 209 209 209 209
 230 230 211 211 211 211 211 211 192 192 192 192 112 112 112 112 84 156 156 156
 156 82 82 82 82 82 82 209 240 240 240 240 211 211 211 211 211 192 192 192
 192 192 112 84 84 84 84 84 156 82 82 82 82 82 82 82 240 240 240 240
 240 38 38 210 210 210 192 192 192 192 192 192 84 84 84 84 84 84 82 82
 82 82 82 82 82 240 240 240 240 240 38 38 38 210 210 192 192 192 192 192
 84 84 84 84 84 84 75 82 82 82 82 82 82 82 240 240 240 240 240 38
 38 38 38 214 214 192 192 192 192 224 224 224 224 199 224 75 43 43 43 43
 43 43 43 240 240 240 240 240 38 38 38 38 214 214 192 192 192 224 224 224
 224 224 224 199 81 81 43 43 43 43 43 52 52 52 52 52 52 52 38 38
 16 16 16 16 16 76 76 76 76 224 224 224 81 81 81 81 43 43 43 43
 52 52 52 52 52 52 52 16 16 16 16 16 16 16 76 76 76 76 76 76
 224 81 81 81 81 81 43 43 43 52 52 52 52 52 52 52 16 16 16 16
 16 16 173 173 173 76 76 76 76 76 81 81 81 81 81 81 43 52 52 52
 52 52 52 52 52 16 16 16 16 16 16 173 173 173 76 76 76 76 76 185
 171 171 171 81 171 44 52 52 52 52 52 52 52 52 16 16 16 16 16 16
 173 173 173 173 76 76 76 76 185 185 185 171 171 171 44 44 52 52 52 52
 52 52 52 181 16 16 16 16 173 173 173 173 173 173 76 76 185 185 185 185
 185 197 197 44 44 44 52 52 52 52 52 181 181 181 16 16 106 106 106 106
 173 173 173 76 185 185 185 185 185 185 197 197 197 44 44 91 91 91 91 91
 181 181 181 19 106 106 106 106 106 106 173 173 185 185 185 185 185 185 185 197
 197 197 197 91 91 91 91 91 91 91 19 19 19 19 106 106 106 106 106 106
 106 185 185 185 195 195 195 195 27 27 27 27 91 91 91 91 91 91 91 19
 19 19 19 106 106 106 106 106 106 106 195 195 195 195 195 195 195 27 27 27
 27 91 91 91 91 91 91 91 59 59 59 59 59 106 106 186 186 186 186 186
 195 195 195 195 195 27 27 27 27 27 27 91 91 91 91 91 91 59 59 59
 59 59 59 186 186 186 186 186 186 195 195 195 195 195 27 27 27 27 27 27
 91 91 91 91 91 59 59 59 59 59 59 59 186 186 186 186 186 186 195 195
 195 195 27 27 27 27 27 27 27 91 91 91 128 128 128 59 59 59 59 59
 194 194 186 186 186 186 186 195 195 64 64 64 27 27 27 27 27 27 27 128
 128 128 128 128 59 59 59 59 59 194 194 194 186 186 186 186 64 64 64 64
 64 182 182 27 27 27 222 65 65 128 128 128 128 128 59 59 59 59 194 194
 194 194 186 242 242 64 64 64 64 64 64 182 182 222 222 222 65 65 65 128
 128 128 128 59 59 59 194 194 194 194 194 242 242 242 64 64 64 64 64 64
 182 222 222 222 222 65 65 65 65 128 128 128 80 9 9 113 113 113 113 113
 113 242 242 64 64 64 64 64 64 182 222 222 222 222 72 72 72 72 72 80
 80 80 80 113 113 113 113 113 113 113 242 242 64 64 64 64 64 64 209 209
 209 209 209 209 72 72 72 72 80 80 80 80 80 113 113 113 113 113 112 112
 112 64 64 64 64 64 64 209 209 209 209 209 209 72 72 72 72 80 80 80
 80 113 113 113 113 113 113 112 112 112 112 64 34 34 34 209 209 209 209 209
 209 209 209 72 72 72 80 80 39 39 39 113 113 113 113 112 112 112 112 112
 112 34 34 34 82 209 209 209 209 209 209 209 72 72 39 39 39 39 39 39
 39 192 192 113 112 112 112 112 112 34 34 34 34 82 82 82 209 209 209 209