# vtk DataFile Version 2.0
Data set from ImportExport Version 6.5.171.b0b162591
ASCII

DATASET RECTILINEAR_GRID
DIMENSIONS 30 30 30
X_COORDINATES 30 float
-1.250000 1.250000 3.750000 6.250000 8.750000 11.250000 13.750000 16.250000 18.750000 21.250000 23.750000 26.250000 28.750000 31.250000 33.750000 36.250000 38.750000 41.250000 43.750000 46.250000 48.750000 
51.250000 53.750000 56.250000 58.750000 61.250000 63.750000 66.250000 68.750000 71.250000 
Y_COORDINATES 30 float
-1.250000 1.250000 3.750000 6.250000 8.750000 11.250000 13.750000 16.250000 18.750000 21.250000 23.750000 26.250000 28.750000 31.250000 33.750000 36.250000 38.750000 41.250000 43.750000 46.250000 48.750000 
51.250000 53.750000 56.250000 58.750000 61.250000 63.750000 66.250000 68.750000 71.250000 
Z_COORDINATES 30 float
-1.250000 1.250000 3.750000 6.250000 8.750000 11.250000 13.750000 16.250000 18.750000 21.250000 23.750000 26.250000 28.750000 31.250000 33.750000 36.250000 38.750000 41.250000 43.750000 46.250000 48.750000 
51.250000 53.750000 56.250000 58.750000 61.250000 63.750000 66.250000 68.750000 71.250000 
CELL_DATA 24389
SCALARS FeatureIds int 1
LOOKUP_TABLE default
 88 88 88 88 94 94 94 94 94 94 94 233 233 233 233 233 233 7 56 56
 56 56 56 56 56 56 37 37 37 88 88 88 88 94 94 94 94 94 94 216
 216 216 216 233 7 7 7 56 56 56 56 56 56 56 56 56 56 230 88 88
 88 94 94 94 94 94 94 94 216 216 216 216 216 7 7 7 7 56 56 56
 56 56 56 56 56 230 230 88 88 88 94 94 94 94 94 94 216 216 216 216
 216 7 7 7 7 7 56 56 56 56 56 56 56 230 230 230 113 113 113 113
 3 3 3 3 176 176 216 216 216 216 7 7 7 7 7 7 56 56 56 56
 56 230 230 230 230 113 113 113 113 234 234 3 3 176 176 176 93 93 93 7
 7 7 7 7 7 56 56 56 56 56 230 230 230 230 113 113 113 113 234 234
 234 3 176 176 176 93 196 196 7 7 7 7 7 7 7 56 56 56 56 51
 51 51 113 113 113 113 113 234 234 234 204 176 176 196 196 196 50 50 7 7
 7 7 7 7 56 56 56 51 51 51 51 113 113 113 113 113 204 204 204 204
 176 196 196 196 50 50 50 50 7 7 131 131 131 131 131 48 51 51 51 51
 113 113 113 113 113 204 204 204 204 204 196 196 50 50 50 50 50 131 131 131
 131 131 131 131 48 51 51 51 51 51 113 113 113 113 204 204 204 204 204 196
 196 50 50 50 50 50 131 131 131 131 131 131 48 48 51 51 51 51 51 113
 113 113 43 204 204 204 204 204 204 50 50 50 50 50 50 131 131 131 131 131
 131 131 48 64 64 64 51 113 64 113 113 43 43 204 204 204 204 204 50 50
 50 50 50 149 149 149 117 117 117 117 117 70 64 64 64 64 64 64 113 113
 43 43 204 204 109 109 109 50 50 50 50 50 149 149 149 117 117 117 117 117
 70 70 70 64 64 64 64 64 113 43 43 109 109 109 109 109 109 50 50 103
 103 103 103 103 117 117 117 117 117 70 70 70 70 64 64 64 64 121 121 109
 109 109 109 109 109 109 109 83 83 83 83 103 103 103 117 117 117 70 70 70
 70 70 70 64 64 121 121 121 121 109 109 109 109 109 109 109 83 83 83 83
 83 103 103 117 117 117 70 70 42 42 70 70 64 121 121 121 121 121 109 109
 109 109 109 109 109 83 83 83 83 83 227 227 227 117 154 154 154 154 154 154
 154 154 121 121 121 121 121 121 109 109 109 109 109 106 83 83 83 83 83 227
 227 227 227 154 154 154 154 154 154 154 154 121 121 121 121 121 121 109 109 109
 109 106 106 106 106 172 172 172 172 227 227 147 147 147 154 154 154 154 154 231
 231 231 121 121 121 121 167 167 167 167 106 106 106 106 106 172 172 172 227 19
 147 147 147 53 53 154 53 53 231 231 231 231 121 121 167 167 167 167 12 12
 106 106 106 106 106 106 19 19 19 147 147 23 53 53 53 53 53 231 231 231
 231 121 121 167 167 167 167 12 12 12 106 106 106 106 19 19 19 19 19 23
 23 23 53 53 53 53 231 151 151 151 151 167 167 167 167 167 12 12 12 12
 106 106 19 19 19 19 19 19 19 23 23 53 53 53 53 53 151 151 151 151
 151 167 167 167 167 167 12 12 12 12 19 19 19 19 19 19 19 19 23 23
 53 53 53 53 151 151 151 151 151 151 167 130 167 167 167 12 12 12 233 19
 19 19 19 19 19 19 19 23 23 53 53 53 53 151 88 88 88 88 88 130
 130 130 130 167 233 233 233 233 233 19 19 19 19 19 19 19 23 23 53 53
 53 88 88 88 88 88 88 88 21 21 21 130 167 233 233 233 233 233 19 19
 19 19 19 19 19 19 23 53 53 53 88 88 88 88 88 88 88 94 94 94
 94 94 233 233 233 233 233 19 19 19 19 19 19 19 19 23 53 53 88 88
 88 88 88 88 88 94 94 94 94 94 59 59 59 233 233 233 233 186 7 56
 56 56 56 56 56 56 37 37 37 37 88 88 88 94 94 94 94 94 94 94
 216 216 216 216 186 186 186 7 56 56 56 56 56 56 56 56 37 37 230 88
 88 88 94 94 94 94 94 94 94 216 216 216 216 186 186 7 7 7 56 56
 56 56 56 56 56 230 230 230 230 230 94 94 94 94 94 94 94 216 216 164
 216 216 186 186 7 7 7 56 56 56 56 56 56 56 230 230 230 230 230 113
 94 94 94 3 176 176 176 216 216 216 216 186 7 7 7 7 7 56 56 56
 56 56 230 230 230 230 230 230 113 113 234 234 234 176 176 176 176 93 93 93
 7 7 7 7 7 7 56 56 56 56 56 230 230 230 230 113 113 113 113 234
 234 234 176 176 176 176 93 93 93 7 7 7 7 7 7 7 56 56 56 56
 230 230 230 230 113 113 113 113 234 234 234 204 176 176 176 93 50 50 50 7
 7 7 7 7 7 56 56 56 48 51 51 51 113 113 113 113 113 204 204 204
 204 176 196 196 50 50 50 50 50 7 7 7 131 131 131 56 48 48 51 51
 51 51 113 80 113 113 204 204 204 204 204 196 196 50 50 50 50 50 131 131
 131 131 131 131 48 48 48 51 51 51 51 113 113 113 113 204 204 204 204 204
 204 50 50 50 50 50 50 131 131 131 131 131 131 48 48 48 48 51 51 51
 113 113 113 113 204 204 204 204 204 204 50 50 50 50 50 50 131 131 131 131
 117 117 116 48 48 48 64 51 113 113 113 113 113 43 204 204 204 204 204 50
 50 50 50 50 50 149 117 117 117 117 117 116 116 48 64 64 64 64 64 113
 113 113 43 204 204 204 204 204 50 50 50 50 50 149 149 117 117 117 117 117
 116 116 70 42 64 64 64 64 64 113 113 43 109 109 109 109 109 109 50 83
 83 83 103 103 117 117 117 117 117 116 116 70 42 42 64 64 64 64 64 121
 121 109 109 109 109 109 109 83 83 83 83 83 83 103 117 117 117 117 116 70
 70 42 70 70 64 64 121 121 121 121 109 109 109 109 109 109 83 83 83 83
 83 83 83 103 117 117 117 70 70 42 42 70 70 64 121 121 121 121 121 121
 109 109 109 109 109 83 83 83 83 83 83 83 227 227 117 154 154 154 154 154
 154 154 154 121 121 121 121 121 121 15 15 15 15 106 106 83 83 83 83 83
 83 227 227 227 154 154 154 154 154 154 154 154 121 121 121 121 121 121 15 15
 15 15 106 106 106 106 106 83 83 83 227 147 147 147 147 154 154 154 154 154
 154 231 121 121 121 121 121 15 15 15 15 106 106 106 106 106 106 106 106 147
 147 147 147 147 78 154 154 154 154 231 231 121 121 121 121 167 167 167 167 12
 12 106 106 106 106 106 106 106 19 138 147 147 147 78 53 53 53 53 231 231
 231 231 121 121 167 167 167 167 12 12 12 106 106 106 106 19 19 19 138 138
 78 78 78 53 53 53 53 53 151 151 151 151 167 167 167 167 167 12 12 12
 12 106 106 19 19 19 19 138 138 78 78 78 53 53 53 53 53 151 151 151
 151 167 167 167 167 167 167 12 12 12 12 19 19 19 19 19 19 19 78 78
 78 53 53 53 53 151 151 151 151 60 60 167 167 167 167 167 12 12 12 233
 19 19 19 19 19 19 19 78 78 78 53 53 53 53 151 88 88 60 60 60
 60 167 167 167 167 12 233 233 233 233 19 19 19 19 19 19 19 78 78 53
 53 53 53 88 88 88 60 60 60 60 59 59 59 59 233 233 233 233 233 19
 19 19 19 19 19 19 78 78 53 53 53 88 88 88 88 88 60 60 94 94
 94 94 59 59 233 233 233 233 19 19 19 19 19 19 19 78 78 53 53 88
 88 88 127 127 127 59 59 59 59 59 59 59 59 59 233 233 233 233 186 186
 61 56 56 56 56 56 37 37 37 37 37 127 127 59 59 59 59 59 59 59
 59 59 216 216 186 186 186 186 186 61 56 56 56 56 56 56 37 37 37 230
 230 230 59 59 59 59 59 59 59 59 216 216 216 186 186 186 186 7 61 61
 56 56 56 56 56 56 230 230 230 230 230 230 59 59 59 59 59 59 59 216
 216 216 186 186 186 186 7 61 61 56 56 56 56 56 230 230 230 230 230 230
 230 59 59 59 59 59 176 176 216 216 216 186 186 186 7 7 7 61 56 56
 56 56 56 230 230 230 230 230 230 113 113 234 234 59 176 176 176 176 93 93
 93 7 7 7 7 7 7 56 56 56 56 56 230 230 230 230 230 113 113 113
 234 234 234 176 176 176 176 93 93 93 7 7 7 7 7 7 7 56 56 56
 230 230 230 230 230 113 113 113 113 234 234 234 204 176 176 176 93 50 50 50
 7 7 7 7 7 7 56 56 48 48 230 230 230 230 113 113 113 113 204 204
 204 204 204 176 176 50 50 50 50 50 7 7 7 7 7 56 48 48 48 51
 51 51 51 113 113 113 113 204 204 204 204 204 176 50 50 50 50 50 50 7
 131 131 131 131 131 48 48 48 48 51 51 51 113 113 113 113 204 204 204 204
 204 204 50 50 50 50 50 50 131 131 131 131 131 131 48 48 48 48 48 51
 113 113 113 113 113 204 204 204 204 204 204 50 50 50 50 50 50 131 131 131
 235 235 116 116 48 48 48 48 48 113 113 113 113 113 204 204 204 204 204 174
 50 50 50 50 50 50 117 117 117 117 117 116 116 116 48 48 64 64 64 64
 113 113 113 204 204 204 204 95 174 174 50 50 50 50 117 117 117 117 235 235
 116 116 116 116 116 64 64 64 64 64 113 113 204 95 95 95 95 95 174 50
 83 83 83 83 103 117 235 235 235 116 116 116 116 42 42 64 64 64 64 64
 121 121 95 95 95 95 95 95 83 83 83 83 83 83 83 235 235 235 116 116
 70 70 70 70 70 64 64 121 121 121 121 95 110 110 15 95 95 83 83 83
 83 83 83 83 235 235 235 112 112 70 70 70 70 70 64 121 121 121 121 121
 121 110 110 15 15 15 83 83 83 83 83 83 83 83 235 112 112 112 112 154
 154 154 154 154 121 121 121 121 121 121 15 15 15 15 15 106 83 83 83 83
 83 83 83 83 112 112 112 112 154 154 154 154 154 121 121 121 121 121 121 15
 15 15 15 15 106 106 106 106 83 83 83 83 147 147 147 147 112 154 154 154
 154 31 121 121 121 121 121 121 15 110 110 110 110 106 106 106 106 106 83 83
 147 147 147 147 147 78 78 154 53 53 31 31 121 121 121 121 167 167 167 167
 12 12 106 106 106 106 106 106 19 138 138 147 147 147 78 78 53 53 53 31
 31 31 121 121 121 167 167 167 167 12 12 12 106 106 106 106 19 19 138 138
 138 147 78 78 78 53 53 53 53 31 31 115 115 167 167 167 167 167 12 12
 12 12 106 106 19 19 19 138 138 138 78 78 78 78 53 53 53 53 151 60
 60 60 167 167 167 167 167 167 12 12 12 12 19 19 19 19 19 138 138 78
 78 78 78 53 53 53 53 60 60 60 60 60 167 167 167 167 167 12 12 12
 233 19 19 19 19 19 19 19 78 78 78 78 53 53 53 53 60 60 60 60
 60 60 167 167 167 167 12 233 233 233 233 19 19 19 19 19 19 78 78 78
 78 53 53 53 127 88 60 60 60 60 59 59 59 59 59 59 233 233 233 233
 19 19 19 19 19 19 19 78 78 78 53 53 127 127 127 60 60 60 60 59
 59 59 59 59 59 233 233 233 233 19 19 19 19 19 19 19 78 78 37 37
 37 127 127 127 127 127 59 59 59 59 59 59 59 59 59 233 233 233 186 186
 186 61 61 56 56 56 37 37 37 37 37 37 127 127 127 59 59 59 59 59
 59 59 59 216 216 186 186 186 186 186 61 61 56 56 56 37 37 37 37 37
 37 230 230 59 59 59 59 59 59 59 59 59 216 216 186 186 186 186 186 61
 61 61 56 56 56 37 37 37 37 230 230 230 230 59 59 59 59 59 59 59
 216 216 216 186 186 186 186 186 61 61 61 56 56 56 37 37 230 230 230 230
 230 208 208 59 59 59 59 59 176 216 216 216 186 186 186 186 7 7 61 61
 56 56 56 56 230 230 230 230 230 208 208 208 234 59 59 176 176 176 176 93
 93 186 186 186 7 7 7 7 56 56 56 56 230 230 230 230 230 230 208 208
 208 234 234 234 176 176 176 176 93 93 186 7 7 7 7 7 7 7 56 56
 56 230 230 230 230 230 208 208 208 208 234 234 234 176 176 176 176 93 50 50
 50 7 7 7 7 7 7 56 56 230 230 230 230 230 230 113 113 113 113 204
 204 204 204 204 176 176 50 50 50 50 50 7 7 7 7 7 139 48 48 48
 48 51 51 113 113 113 113 113 204 204 204 204 204 204 50 50 50 50 50 50
 7 7 136 136 136 136 48 48 48 48 48 51 113 113 113 113 113 204 204 204
 204 204 204 50 50 50 50 50 50 136 136 136 136 136 136 48 48 48 48 48
 48 113 113 113 113 113 204 204 204 204 204 174 50 50 50 50 50 50 136 136
 136 136 235 116 116 48 48 48 48 48 113 113 113 113 113 204 204 204 204 174
 174 174 50 50 50 50 166 235 235 235 235 235 116 116 116 48 48 48 48 64
 64 113 113 113 204 204 95 95 95 174 174 174 38 38 38 38 235 235 235 235
 235 116 116 116 116 48 48 64 64 64 64 64 113 95 95 95 95 95 95 174
 174 38 38 86 86 235 235 235 235 235 116 116 116 116 70 64 64 64 64 64
 64 121 95 95 95 95 95 95 95 95 86 86 86 86 86 235 235 235 235 116
 116 116 70 70 70 64 64 64 121 121 121 95 95 95 95 95 95 95 95 86
 86 86 86 86 86 235 235 235 112 112 112 112 70 70 70 64 31 121 121 121
 121 95 95 95 95 95 95 95 86 86 86 86 86 86 86 235 112 112 112 112
 112 154 154 154 154 31 121 121 121 121 110 110 110 15 15 15 106 86 86 86
 86 86 86 86 86 112 112 112 112 112 112 154 154 31 31 31 121 121 121 15
 15 15 15 15 15 106 106 106 86 86 86 86 86 147 147 147 112 112 112 112
 154 31 31 31 31 121 121 121 15 15 110 110 110 110 106 106 106 106 106 86
 86 147 147 147 147 147 147 78 78 53 31 31 31 31 31 121 121 167 110 110
 110 110 12 106 106 106 106 106 106 138 138 138 147 147 147 78 78 78 53 31
 31 31 31 31 115 115 115 167 167 167 12 12 12 106 106 106 106 19 19 138
 138 138 147 78 78 78 78 53 53 31 31 31 115 115 115 115 167 167 167 167
 12 12 81 81 81 19 19 19 138 138 138 78 78 78 78 78 53 53 53 127
 127 115 115 115 115 167 167 167 167 12 12 81 81 81 19 19 19 138 138 138
 78 78 78 78 78 53 53 53 127 127 127 115 115 115 167 167 167 167 12 12
 81 81 19 19 19 19 19 19 19 78 78 78 78 78 53 53 127 127 127 60
 60 60 115 59 167 167 59 59 233 233 233 233 19 19 19 19 19 19 78 78
 78 78 78 53 127 127 127 127 60 60 60 59 59 59 59 59 59 233 233 233
 233 19 19 19 19 19 19 19 78 78 78 78 37 127 127 127 127 127 60 60
 59 59 59 59 59 59 59 233 233 233 19 19 19 19 19 19 232 78 37 37
 37 37 127 127 127 127 127 127 59 59 59 59 59 59 59 59 233 186 186 186
 186 4 4 4 232 232 232 37 37 37 37 37 37 127 127 127 59 59 59 59
 59 59 59 59 216 216 186 186 186 186 186 4 4 232 232 232 37 37 37 37
 37 37 102 102 102 59 59 59 59 59 59 59 59 216 216 186 186 186 186 186
 61 61 61 56 56 37 37 37 37 37 37 230 230 208 59 59 59 59 59 59
 59 59 216 216 186 186 186 186 186 61 61 61 56 56 37 37 37 230 230 230
 230 208 208 208 59 59 59 59 59 59 59 216 216 186 186 186 186 7 61 61
 61 56 56 56 37 230 230 230 230 230 208 208 208 208 59 59 59 176 176 176
 93 93 186 186 186 7 7 7 7 56 56 56 56 230 230 230 230 230 208 208
 208 208 208 211 211 176 176 176 176 93 148 148 148 7 7 7 7 7 7 56
 56 230 230 230 230 230 230 208 208 208 208 208 234 234 176 176 176 14 148 148
 148 148 7 7 7 7 7 7 139 119 119 230 230 230 230 208 208 208 208 208
 208 204 204 204 204 14 14 14 148 148 148 50 7 7 7 136 136 139 139 48
 48 48 51 51 208 208 208 208 208 204 204 204 204 204 14 14 14 50 148 50
 50 139 136 136 136 136 136 239 48 48 48 48 48 113 113 113 113 113 204 204
 204 204 204 14 14 50 50 50 50 50 136 136 136 136 136 136 48 48 48 48
 48 48 113 113 113 113 113 204 204 204 204 174 174 174 50 50 50 166 166 136
 136 136 136 136 136 116 116 48 48 48 48 113 113 113 113 113 204 204 181 174
 174 174 174 174 38 38 166 166 166 235 235 235 235 116 116 116 48 48 48 48
 64 64 113 113 113 181 95 95 174 174 174 174 174 38 38 38 38 166 235 235
 235 235 116 116 116 116 48 48 48 64 64 64 64 95 95 95 95 95 95 95
 174 174 38 38 38 38 166 235 235 235 235 116 116 116 116 116 48 64 64 64
 64 95 95 95 95 95 95 95 95 95 38 38 38 38 38 86 235 235 235 235
 112 112 112 112 112 70 64 64 64 31 121 191 95 95 95 95 95 95 95 95
 86 86 86 86 86 86 235 235 235 112 112 112 112 112 112 112 64 31 31 121
 191 95 95 95 95 95 95 95 95 86 86 86 86 86 86 86 112 112 112 112
 112 112 112 112 112 112 31 31 121 121 121 95 95 95 95 95 95 95 86 86
 86 86 86 86 86 86 112 112 112 112 112 112 112 112 31 31 31 31 31 121
 15 15 15 15 15 15 106 106 86 86 86 86 86 86 147 147 112 112 213 112
 112 112 31 31 31 31 31 31 121 15 15 15 15 15 15 106 106 106 106 106
 86 86 147 147 147 147 147 213 213 112 112 31 31 31 31 31 31 31 15 15
 29 110 15 15 81 81 81 81 81 81 138 138 138 147 147 147 78 78 78 78
 31 31 31 31 31 115 115 115 29 29 29 29 12 81 81 81 81 81 19 138
 138 138 138 147 78 78 78 78 78 31 31 31 31 31 115 115 115 29 29 29
 29 12 81 81 81 81 81 19 138 138 138 138 78 78 78 78 78 78 78 31
 31 31 115 115 115 115 115 29 29 29 12 81 81 81 81 81 19 19 138 138
 138 78 78 78 78 78 78 190 190 127 127 127 115 115 115 115 29 29 29 12
 81 81 81 81 19 19 19 19 138 138 78 78 78 78 78 78 190 127 127 127
 127 127 60 115 115 29 29 59 59 81 81 233 233 19 19 19 19 19 19 78
 78 78 78 78 78 127 127 127 127 127 127 60 59 59 59 59 59 59 233 233
 233 233 19 19 19 19 19 19 232 78 78 37 37 37 127 127 127 127 127 127
 60 59 59 59 59 59 59 59 233 233 233 40 40 19 19 4 232 232 232 37
 37 37 37 37 127 127 127 127 127 59 59 59 59 59 59 59 59 189 189 189
 189 189 4 4 4 232 232 232 37 37 37 37 37 127 102 102 102 127 59 59
 59 59 59 59 59 59 189 189 189 189 189 4 4 4 232 232 232 37 37 37
 37 37 127 102 102 102 59 59 59 59 59 59 59 59 59 212 212 212 212 212
 212 4 4 232 232 232 37 37 37 37 37 37 102 102 102 59 59 59 59 59
 59 59 59 59 212 212 212 212 212 212 4 61 232 232 232 37 37 37 37 90
 90 90 208 208 208 59 59 59 59 59 59 237 237 212 212 212 212 212 212 61
 61 61 232 232 37 37 90 90 90 90 208 208 208 208 208 211 59 59 59 14
 14 14 148 148 57 57 57 7 7 7 56 232 56 119 90 90 90 90 90 208
 208 208 208 208 211 211 211 14 14 14 14 148 148 148 57 57 7 7 7 7
 139 119 119 90 90 90 90 90 208 208 208 208 208 211 211 211 14 14 14 14
 148 148 148 148 57 139 139 139 139 139 119 119 142 142 28 28 208 208 208 208
 208 208 211 211 211 14 14 14 14 148 148 148 148 139 139 139 139 139 139 139
 142 142 142 28 28 208 208 208 208 208 208 204 204 204 14 14 14 14 14 148
 148 139 139 139 139 139 139 139 239 239 142 142 142 48 208 208 208 208 113 204
 204 204 92 174 14 14 14 14 148 166 139 139 139 136 136 136 139 239 239 239
 48 48 48 113 113 113 113 113 204 204 181 174 174 174 174 174 166 166 166 166
 166 136 136 136 136 136 239 239 239 48 48 48 48 113 113 113 113 181 181 181
 174 174 174 174 174 166 166 166 166 166 136 136 136 136 136 116 116 116 48 48
 48 48 9 9 9 181 181 181 181 174 174 174 174 174 38 38 38 166 166 166
 136 136 136 116 116 116 116 48 48 48 48 9 9 9 181 181 95 95 95 174
 174 174 174 38 38 38 38 166 166 235 235 235 116 116 116 116 116 48 64 64
 9 9 9 191 191 95 95 95 95 95 174 38 38 38 38 38 38 166 235 235
 235 112 112 112 112 112 112 64 64 84 31 191 191 191 95 95 95 95 95 95
 38 38 38 38 38 38 86 235 235 112 112 112 112 112 112 112 112 64 31 31
 191 191 191 95 95 95 95 95 95 95 126 86 86 86 86 86 86 112 112 112
 112 112 112 112 112 112 112 31 31 31 191 191 95 95 95 95 95 95 126 126
 126 126 86 86 86 86 112 112 112 112 112 112 112 112 112 31 31 31 31 31
 191 95 95 95 95 95 95 126 126 126 194 86 86 86 86 147 112 112 213 213
 213 112 112 31 31 31 31 31 31 31 15 15 15 15 15 15 126 126 126 194
 194 86 86 147 147 147 147 213 213 213 112 31 31 31 31 31 31 31 31 29
 29 29 29 29 29 81 81 81 81 81 81 138 138 138 147 147 147 78 78 78
 190 31 31 31 31 31 115 115 115 29 29 29 29 29 81 81 81 81 81 81
 138 138 138 138 147 78 78 78 78 190 190 31 31 31 31 115 115 115 29 29
 29 29 29 81 81 81 81 81 19 138 138 138 138 78 78 78 78 78 190 190
 190 31 31 115 115 115 115 29 29 29 29 29 81 81 81 81 81 19 19 138
 138 138 78 78 78 78 78 190 190 190 127 127 127 82 115 115 29 29 29 29
 81 81 81 81 81 81 40 19 19 138 138 78 78 78 78 78 190 190 127 127
 127 127 127 82 82 29 29 29 29 81 81 81 40 40 40 40 19 19 19 19
 78 78 78 78 78 190 190 127 127 127 127 127 82 59 59 59 59 59 59 81
 40 40 40 40 40 40 19 4 232 232 232 232 37 37 37 127 127 127 127 127
 127 127 59 59 59 59 59 59 59 233 40 40 40 40 4 4 4 232 232 232
 232 37 37 37 37 127 102 102 127 127 59 59 59 59 59 59 59 89 189 189
 189 189 189 4 4 4 4 232 232 232 37 37 37 37 127 102 102 102 102 59
 59 59 59 59 59 59 89 189 189 189 189 189 4 4 4 232 232 232 232 37
 37 37 37 102 102 102 102 102 59 59 59 59 59 237 237 237 212 212 212 212
 212 212 4 4 232 232 232 232 37 37 37 37 102 102 102 102 102 104 104 104
 104 104 237 237 237 212 212 212 212 212 212 4 4 232 232 232 232 37 37 37
 215 215 215 208 208 208 211 211 104 104 104 237 237 237 212 212 212 212 212 212
 212 4 232 232 232 232 37 215 215 215 215 215 208 208 208 211 211 211 104 104
 14 14 14 148 148 57 57 57 57 212 4 232 232 119 119 215 215 215 215 215
 208 208 208 208 211 211 211 211 14 14 14 14 148 148 148 57 57 57 57 139
 139 119 119 119 119 215 28 28 215 208 208 208 208 211 211 211 211 14 14 14
 14 148 148 148 148 57 139 139 139 139 139 119 119 142 142 28 28 28 208 208
 208 208 211 211 211 211 14 14 14 14 14 148 148 148 139 139 139 139 139 139
 119 142 142 142 142 28 28 208 208 208 208 211 211 211 211 14 14 14 14 14
 148 148 148 139 139 139 139 139 139 239 239 142 142 142 28 28 208 208 208 208
 211 211 211 92 174 14 14 14 14 148 148 139 139 139 139 139 139 139 239 239
 239 142 142 142 28 9 9 9 208 181 181 181 174 174 174 174 174 166 166 166
 166 166 139 136 136 136 239 239 239 239 239 142 142 48 9 9 9 181 181 181
 181 174 174 174 174 174 166 166 166 166 166 166 136 136 136 239 239 239 239 239
 48 48 48 9 9 9 181 181 181 181 174 174 174 174 174 38 38 38 166 166
 166 136 136 136 239 239 239 239 239 48 48 9 9 9 9 181 181 181 181 174
 174 174 174 174 38 38 38 38 166 166 166 235 235 239 112 112 112 112 48 9
 9 9 9 9 191 191 191 95 95 95 174 174 174 38 38 38 38 38 166 166
 235 112 112 112 112 112 112 112 112 9 84 84 191 191 191 191 95 95 95 95
 174 38 38 38 38 38 38 166 166 112 112 112 112 112 112 112 112 112 84 84
 84 191 191 191 191 95 95 95 95 95 126 126 126 126 126 86 86 112 112 112
 112 112 112 112 112 112 112 31 31 31 191 191 191 191 95 95 95 95 95 126
 126 126 126 126 86 86 86 112 112 112 112 112 112 112 112 31 31 31 31 31
 191 191 191 95 95 95 95 95 126 126 126 194 126 126 126 10 10 112 112 112
 213 112 112 112 31 31 31 31 31 31 191 191 15 15 15 95 126 126 126 194
 194 194 194 194 10 10 147 147 213 213 213 112 190 31 31 31 31 31 31 31
 29 29 29 29 29 171 171 171 171 171 171 171 10 10 10 147 147 147 78 78
 190 190 190 31 31 31 31 31 115 29 29 29 29 29 29 81 81 81 81 81
 81 138 138 138 138 147 78 78 78 190 190 190 190 165 165 165 82 115 115 29
 29 29 29 29 81 81 81 81 81 81 138 138 138 138 78 78 78 78 190 190
 190 190 190 165 82 82 82 115 29 29 29 29 29 81 81 81 81 81 81 19
 138 138 138 78 78 78 78 190 190 190 190 127 127 82 82 82 82 29 29 29
 29 29 81 81 81 81 40 40 40 19 138 138 78 78 78 78 190 190 190 190
 127 127 127 82 82 82 29 29 29 29 29 81 81 40 40 40 40 40 4 4
 4 232 232 78 78 190 190 190 127 127 127 127 127 82 82 59 59 59 59 59
 40 40 40 40 40 40 40 4 4 4 232 232 232 37 37 37 127 127 127 127
 127 127 82 59 59 59 59 59 59 89 40 40 40 40 40 4 4 4 4 232
 232 232 37 37 37 37 127 102 102 102 102 102 59 59 59 237 237 89 89 89
 189 189 189 189 4 4 4 4 232 232 232 37 37 37 37 127 102 102 102 102
 102 104 104 104 237 237 237 89 89 189 189 146 189 4 4 4 4 232 232 232
 37 37 37 37 102 102 102 102 102 102 104 104 104 237 237 237 89 212 212 212
 212 212 212 4 4 232 232 232 232 37 37 37 37 102 102 102 102 102 104 104
 104 104 104 237 237 237 212 212 212 212 212 212 4 4 232 232 232 232 37 37
 215 215 215 215 102 102 102 104 104 104 104 104 237 237 237 212 212 212 212 212
 212 212 4 232 232 232 232 215 215 215 215 215 215 208 208 208 211 211 104 104
 104 237 14 14 14 57 57 57 57 57 212 4 232 119 119 119 119 215 215 215
 215 208 208 208 208 211 211 211 211 14 14 14 14 14 148 148 57 57 57 57
 139 119 119 119 119 119 215 215 28 215 208 208 208 208 211 211 211 211 14 14
 14 14 14 148 148 148 57 139 139 139 139 119 119 119 119 142 28 28 28 208
 208 208 208 211 211 211 211 14 14 14 14 148 148 148 148 139 139 139 139 139
 139 119 119 142 142 142 28 28 208 208 208 208 211 211 211 211 14 14 14 14
 148 148 148 148 139 139 139 139 139 139 239 239 142 142 142 28 28 208 208 208
 208 211 211 211 92 92 92 92 92 148 148 148 139 139 139 139 139 139 139 239
 239 239 142 142 142 28 9 9 9 181 181 181 181 92 92 92 92 92 166 166
 166 166 166 139 139 139 139 239 239 239 239 239 142 142 9 9 9 9 181 181
 181 181 174 174 174 174 174 166 166 166 166 166 166 139 139 139 239 239 239 239
 239 142 9 9 9 9 9 181 181 181 181 181 174 174 174 174 38 166 166 166
 166 166 166 139 139 239 239 239 239 239 239 9 9 9 9 9 181 181 181 181
 181 174 174 174 174 38 38 38 166 166 166 166 139 139 239 239 239 239 239 239
 9 9 9 9 9 181 181 181 181 33 174 174 174 174 38 38 38 38 166 166
 166 139 112 112 112 112 112 112 112 9 9 84 84 84 191 191 191 191 95 95
 95 174 174 38 38 38 38 38 166 166 112 112 112 112 112 112 112 112 84 84
 84 84 84 191 191 191 191 95 95 95 95 194 194 194 126 126 126 166 166 112
 112 112 112 112 112 112 112 84 84 84 84 84 191 191 191 191 95 95 95 95
 126 126 194 126 126 126 126 10 10 112 112 112 112 112 112 112 84 84 31 31
 31 191 191 191 191 95 95 95 126 126 126 126 126 126 126 10 10 10 112 112
 112 112 112 112 112 31 31 31 31 31 31 191 191 191 95 95 95 126 126 126
 194 126 126 126 10 10 10 10 152 152 152 152 190 190 31 31 31 31 31 31
 2 2 29 29 29 29 171 171 171 171 171 171 171 10 10 10 10 152 152 152
 152 190 190 190 190 165 165 165 165 115 29 29 29 29 29 171 171 171 171 171
 171 171 10 10 10 10 152 152 152 152 190 190 190 190 165 165 165 82 82 82
 29 29 29 29 29 81 81 81 81 81 81 10 10 10 10 78 152 20 20 190
 190 190 190 190 165 82 82 82 82 29 29 29 29 29 81 81 81 81 81 40
 40 10 10 138 78 20 20 20 20 190 190 190 190 82 82 82 82 82 29 29
 29 29 224 81 81 81 40 40 40 40 40 4 4 232 78 20 20 20 190 190
 190 127 127 82 82 82 82 82 29 29 29 224 40 40 40 40 40 40 40 40
 4 4 232 232 232 20 20 190 190 127 127 127 127 82 82 82 82 59 59 89
 89 89 40 40 40 40 40 40 4 4 4 232 232 232 37 37 37 127 127 127
 102 127 127 82 82 59 59 59 89 89 89 40 40 40 40 40 4 4 4 4
 232 232 232 37 37 37 127 127 102 102 102 102 102 104 104 237 237 237 89 89
 89 189 189 189 189 4 4 4 4 232 232 232 232 37 37 37 127 102 102 102
 102 102 104 104 104 237 237 89 89 89 189 189 189 189 4 4 4 232 232 232
 232 232 37 37 37 102 102 102 102 102 102 104 104 104 237 237 237 89 89 212
 212 212 212 212 4 4 232 232 232 232 232 37 37 215 215 102 102 102 102 104
 104 104 104 104 237 237 237 212 212 212 212 212 212 4 4 232 232 232 232 232
 215 215 215 215 215 102 102 39 104 104 104 104 104 237 237 237 212 212 212 212
 212 212 212 4 232 232 232 119 215 215 215 215 215 215 208 208 39 211 104 104
 104 237 237 237 14 14 57 57 57 57 57 212 4 232 119 119 119 119 215 215
 215 215 215 208 208 208 211 211 211 104 237 14 14 14 14 148 148 57 57 57
 57 139 119 119 119 119 119 119 215 215 215 28 208 208 208 211 211 211 211 14
 14 14 14 148 148 148 148 57 139 139 139 139 119 119 119 119 119 28 28 28
 28 208 208 208 211 211 211 211 14 14 14 14 148 148 148 148 139 139 139 139
 139 119 119 119 119 142 142 28 28 28 208 208 208 211 211 211 92 92 92 14
 14 148 148 148 148 139 139 139 139 139 139 119 119 142 142 142 142 28 9 9
 208 208 211 211 92 92 92 92 92 92 148 148 148 139 139 139 139 139 139 139
 239 239 239 142 142 142 28 9 9 9 181 181 181 181 92 92 92 92 92 92
 166 166 166 139 139 139 139 139 139 239 239 239 239 142 142 9 9 9 9 181
 181 181 181 181 92 92 92 92 166 166 166 166 166 166 139 139 139 239 239 239
 239 239 142 9 9 9 9 9 181 181 181 181 181 174 174 174 174 38 166 166
 166 166 166 139 139 139 239 239 239 239 239 239 9 9 9 9 9 181 181 181
 181 181 174 41 41 41 38 166 166 166 166 166 166 139 139 239 239 239 239 239
 239 9 9 9 9 9 181 181 181 181 33 33 41 41 41 38 38 38 166 166
 166 166 49 49 49 112 112 112 112 144 9 9 84 84 84 84 191 191 191 33
 33 33 41 41 194 38 38 74 74 166 166 112 112 112 112 112 112 112 112 84
 84 84 84 84 84 191 191 191 191 33 33 194 194 194 194 126 126 177 177 10
 10 112 112 112 112 112 112 112 84 84 84 84 84 84 191 191 191 191 95 95
 194 194 194 194 126 126 126 10 10 10 10 112 112 112 112 112 112 84 84 84
 84 84 84 191 191 191 191 95 95 126 126 194 126 126 126 126 10 10 10 10
 152 152 152 152 152 190 84 84 31 31 31 2 2 2 2 2 2 126 126 126
 126 126 126 126 126 10 10 10 10 152 152 152 152 152 190 190 31 107 107 107
 2 2 2 2 2 2 2 171 171 171 171 171 171 171 10 10 10 10 152 152
 152 152 20 190 190 190 107 107 107 2 2 2 2 2 29 29 171 171 171 171
 171 171 171 10 10 10 10 152 152 152 20 20 190 190 190 107 107 107 82 82
 2 2 29 29 29 171 171 171 171 171 171 157 10 10 10 10 214 152 20 20
 20 20 190 190 107 107 82 82 82 82 29 29 29 29 224 224 81 81 157 157
 157 157 10 10 214 214 20 20 20 20 20 190 190 107 82 82 82 82 82 82
 29 29 224 224 224 224 157 157 40 157 157 58 214 214 214 20 20 20 20 20
 190 190 127 82 82 82 82 82 82 82 29 224 224 224 40 40 40 40 40 40
 141 4 141 232 232 20 20 20 20 190 190 127 82 82 82 82 82 82 82 89
 89 89 89 40 40 40 40 40 40 4 4 4 232 232 232 232 37 20 127 127
 127 102 102 82 82 82 54 59 89 89 89 89 89 40 40 40 40 4 4 4
 4 232 232 232 232 37 37 127 127 102 102 102 102 102 54 54 54 237 237 89
 89 89 89 189 189 189 4 4 4 232 232 232 232 232 238 37 37 127 102 102
 102 102 104 104 104 104 237 237 89 89 89 89 189 189 189 4 4 4 232 232
 232 232 232 238 238 238 102 102 102 102 102 104 104 104 104 237 237 237 89 89
 212 212 212 212 212 4 4 232 232 232 232 238 238 238 238 215 102 102 39 39
 39 104 104 104 104 237 237 89 89 212 212 212 212 212 4 4 232 232 232 232
 238 238 238 221 215 215 39 39 39 39 104 104 104 104 237 237 237 212 212 212
 212 212 212 212 4 232 232 119 119 221 221 221 221 215 215 39 39 39 39 104
 104 104 237 237 237 237 14 148 57 57 57 57 155 155 119 119 119 119 221 221
 221 215 215 215 39 39 39 39 211 211 104 237 237 14 14 148 148 148 57 57
 57 139 119 119 119 119 119 119 221 229 215 215 28 208 39 39 211 211 211 211
 237 14 14 14 148 148 148 148 57 139 139 139 119 119 119 119 119 119 229 28
 28 28 208 39 39 211 211 211 92 92 14 14 148 148 148 148 148 139 139 139
 139 139 119 119 119 119 119 142 28 28 28 156 156 156 211 211 92 92 92 92
 92 148 148 148 87 87 139 139 139 139 139 139 119 119 119 142 142 142 28 9
 9 156 156 92 92 92 92 92 92 92 92 92 87 87 87 87 139 139 139 139
 139 239 239 239 142 142 142 28 9 9 9 156 181 181 181 92 92 92 92 92
 92 87 87 87 87 139 139 139 139 139 239 239 239 239 142 142 9 9 9 9
 181 181 181 181 181 41 41 92 92 92 166 166 166 166 139 139 139 139 139 111
 111 111 144 144 144 9 9 9 9 181 181 181 181 181 41 41 41 41 92 166
 166 166 166 166 139 139 139 111 111 111 111 144 144 144 9 9 9 9 181 181
 181 181 33 41 41 41 41 41 74 74 74 74 74 74 139 49 49 111 111 111
 111 144 9 9 9 9 84 181 181 181 33 33 33 41 41 41 74 74 74 74
 74 74 74 49 49 49 111 111 111 111 144 9 9 84 84 84 84 181 181 33
 33 33 33 41 41 74 74 74 74 74 74 74 49 49 49 49 112 111 111 144
 84 84 84 84 84 84 6 6 191 33 33 33 41 194 194 177 177 177 177 177
 177 205 205 49 112 112 112 112 84 84 84 84 84 84 84 6 6 191 191 33
 33 194 194 194 178 126 177 177 177 10 10 10 192 112 112 112 112 84 84 84
 84 84 84 2 2 2 2 2 2 2 126 126 194 126 178 178 177 10 10 10
 10 152 152 152 152 152 152 84 84 84 84 2 2 2 2 2 2 2 2 126