# vtk DataFile Version 2.0
Data set from ImportExport Version 6.5.171.b0b162591
ASCII

DATASET RECTILINEAR_GRID
DIMENSIONS 30 30 30
X_COORDINATES 30 float
-1.250000 1.250000 3.750000 6.250000 8.750000 11.250000 13.750000 16.250000 18.750000 21.250000 23.750000 26.250000 28.750000 31.250000 33.750000 36.250000 38.750000 41.250000 43.750000 46.250000 48.750000 
51.250000 53.750000 56.250000 58.750000 61.250000 63.750000 66.250000 68.750000 71.250000 
Y_COORDINATES 30 float
-1.250000 1.250000 3.750000 6.250000 8.750000 11.250000 13.750000 16.250000 18.750000 21.250000 23.750000 26.250000 28.750000 31.250000 33.750000 36.250000 38.750000 41.250000 43.750000 46.250000 48.750000 
51.250000 53.750000 56.250000 58.750000 61.250000 63.750000 66.250000 68.750000 71.250000 
Z_COORDINATES 30 float
-1.250000 1.250000 3.750000 6.250000 8.750000 11.250000 13.750000 16.250000 18.750000 21.250000 23.750000 26.250000 28.750000 31.250000 33.750000 36.250000 38.750000 41.250000 43.750000 46.250000 48.750000 
51.250000 53.750000 56.250000 58.750000 61.250000 63.750000 66.250000 68.750000 71.250000 
CELL_DATA 24389
SCALARS FeatureIds int 1
LOOKUP_TABLE default
 92 92 92 92 92 92 92 13 13 13 13 13 98 98 98 98 98 175 175 175
 208 208 208 208 153 153 153 153 153 92 92 92 92 92 92 92 178 13 13 13
 13 98 98 98 98 72 72 175 175 208 208 208 208 153 153 153 153 153 92 92
 92 92 92 92 92 135 135 135 135 135 135 135 98 72 72 72 175 175 45 208
 208 208 153 153 153 153 153 54 92 92 92 92 92 135 135 135 135 135 135 135
 135 210 210 210 72 45 45 45 45 45 45 45 153 153 153 54 54 54 54 54
 54 135 135 135 135 135 135 135 135 135 210 210 210 195 45 45 45 45 45 45
 45 85 85 54 54 54 54 54 54 54 135 135 135 135 135 135 135 135 135 210
 210 195 195 195 45 45 45 45 45 85 85 85 54 54 54 54 54 54 20 20
 135 135 135 135 135 135 135 135 210 195 195 195 195 195 45 45 45 85 85 85
 85 54 54 54 54 54 54 20 20 20 135 173 173 173 135 135 61 61 195 195
 195 195 195 45 85 85 85 85 85 85 85 54 54 54 54 193 193 20 20 173
 173 173 173 61 61 61 61 61 66 66 66 66 66 85 85 85 85 85 85 85
 54 95 95 95 193 193 193 193 173 173 173 173 61 61 61 61 61 66 66 66
 66 66 85 85 85 85 85 85 85 54 95 95 95 193 193 193 193 173 173 173
 61 61 61 61 61 61 66 66 66 66 66 85 85 85 85 85 85 85 54 95
 95 95 193 193 78 78 78 241 61 61 61 61 61 61 61 224 224 224 224 119
 94 94 94 85 151 151 233 233 233 95 184 184 78 78 78 78 241 61 61 61
 61 61 61 61 224 224 224 224 119 119 94 151 151 151 151 233 233 233 184 184
 184 78 78 78 78 174 174 142 61 61 61 61 224 224 224 224 224 119 119 151
 151 151 151 151 233 233 184 184 184 184 184 78 78 78 174 174 142 142 142 142
 61 224 224 224 224 224 119 119 147 147 147 147 147 233 233 184 184 184 184 184
 78 78 78 174 174 174 142 142 142 142 224 224 224 186 186 186 186 147 147 147
 147 147 147 184 184 184 184 184 184 78 78 174 174 174 142 142 142 142 142 224
 224 186 186 186 186 186 186 147 147 147 147 147 184 184 184 184 184 184 201 201
 201 174 174 183 183 183 183 32 32 186 186 186 186 186 186 186 147 147 147 147
 147 184 184 184 184 184 184 122 122 122 183 183 183 183 183 183 183 32 186 186
 186 186 186 186 59 59 59 59 147 147 184 184 184 184 184 122 122 122 122 122
 183 183 183 183 43 43 137 137 42 186 186 186 59 59 59 59 59 59 59 184
 184 184 184 122 122 122 122 122 122 122 183 183 43 43 43 137 137 137 42 42
 186 59 59 59 59 59 59 17 17 91 91 91 122 122 122 122 122 122 122 183
 183 43 43 43 137 137 137 137 137 206 206 206 59 59 59 17 17 17 91 91
 91 91 190 122 122 122 122 122 2 2 43 43 43 108 137 137 137 137 206 206
 206 206 206 17 17 17 91 91 91 91 91 190 190 165 165 165 165 2 2 2
 43 108 108 108 137 137 206 206 206 206 206 206 17 17 91 91 91 91 91 91
 190 165 165 165 165 2 2 2 2 2 108 108 108 108 137 206 206 206 206 206
 206 153 153 91 91 91 91 91 91 91 165 204 204 13 2 2 2 2 2 2
 108 108 108 208 208 208 208 208 208 153 153 153 153 91 91 91 91 91 91 165
 13 13 13 13 13 2 2 2 2 108 108 175 175 208 208 208 208 208 153 153
 153 153 91 5 5 5 5 92 92 13 13 13 13 13 2 2 2 2 98 175
 175 175 175 208 208 208 208 153 153 153 153 91 5 5 5 92 92 92 13 13
 13 13 13 13 2 2 98 98 175 175 175 175 208 208 208 208 153 153 153 153
 153 5 5 92 92 92 92 178 178 13 13 13 13 98 98 98 98 98 72 175
 208 208 208 208 208 153 153 153 153 153 5 5 92 92 92 92 178 178 178 178
 13 13 98 98 98 98 72 72 72 208 208 208 208 208 153 153 153 153 153 92
 92 92 92 92 92 178 135 135 135 135 135 135 98 98 72 72 72 72 45 45
 208 208 208 153 153 153 153 153 54 54 92 92 92 92 135 135 135 135 135 135
 135 210 210 210 210 72 45 45 45 45 45 45 45 45 153 153 54 54 54 54
 54 54 135 135 135 135 135 135 135 135 210 210 210 210 210 45 45 45 45 45
 45 45 45 45 54 54 54 54 54 54 54 135 135 135 135 135 135 135 135 210
 210 210 210 210 45 45 45 45 45 45 45 85 85 54 54 54 54 54 54 54
 20 135 135 135 135 135 135 135 210 210 210 210 210 195 45 45 45 45 45 85
 85 85 54 54 54 54 54 54 20 20 135 135 173 173 173 135 135 210 210 210
 66 66 66 66 45 45 45 85 85 85 85 110 54 54 54 54 54 193 20 173
 173 173 173 173 173 61 61 61 66 66 66 66 66 66 85 85 85 85 85 85
 110 54 54 54 54 54 193 193 193 173 173 173 173 61 61 61 61 61 66 66
 66 66 66 85 85 85 85 85 110 110 110 110 95 95 193 193 78 78 241 241
 241 241 61 61 61 61 61 66 66 66 66 66 94 94 94 85 85 110 110 110
 110 95 95 78 78 78 78 78 241 241 241 61 61 61 61 61 224 224 224 224
 224 94 94 94 94 151 110 233 233 233 233 184 78 78 78 78 78 241 241 241
 61 61 61 61 61 224 224 224 224 224 94 94 94 151 151 233 233 233 184 184
 184 184 78 78 78 78 174 174 174 61 61 61 61 224 224 224 224 224 224 94
 94 151 151 151 233 233 233 184 184 184 184 78 78 78 78 174 174 174 61 61
 61 61 224 224 224 224 224 224 186 94 147 147 147 147 233 233 184 184 184 184
 184 78 78 78 174 174 174 142 142 142 61 224 224 224 186 186 186 186 186 147
 147 147 147 147 184 184 184 184 184 184 78 78 78 174 174 174 142 142 142 32
 200 200 186 186 186 186 186 186 147 147 147 147 147 184 184 184 184 184 184 201
 201 201 201 174 174 183 183 32 32 32 200 186 186 186 186 186 186 147 147 147
 147 147 184 184 184 184 184 184 201 201 201 201 201 183 183 183 32 32 32 32
 186 186 186 186 186 186 59 59 59 147 147 184 184 184 184 184 122 122 122 122
 122 122 183 183 43 43 32 32 211 211 211 186 186 186 59 59 59 17 17 17
 17 134 134 184 122 122 122 122 122 122 122 183 43 43 43 43 137 137 42 42
 42 186 59 59 59 17 17 17 17 17 244 244 190 190 190 122 122 122 122 122
 183 43 43 43 43 137 137 42 137 137 206 206 206 59 17 17 17 17 17 91
 91 190 190 190 190 122 122 122 122 2 43 43 43 43 42 42 42 137 137 206
 206 206 206 17 17 17 17 17 91 91 91 190 190 190 165 165 165 165 2 2
 43 43 43 108 42 42 137 206 206 206 206 206 17 17 17 17 91 91 91 91
 190 190 190 165 204 204 2 2 2 2 2 108 108 108 108 137 206 206 206 206
 206 17 17 153 91 91 91 91 91 91 190 190 204 204 13 13 2 2 2 2
 2 108 108 108 208 208 208 208 208 208 153 153 153 153 91 5 5 5 5 190
 190 204 13 13 13 13 2 2 2 2 98 98 208 208 208 208 208 208 208 153
 153 153 153 91 5 5 5 5 5 86 13 13 13 13 13 13 98 98 98 98
 98 175 208 208 208 208 208 208 153 153 153 153 5 5 5 5 5 92 86 13
 13 13 13 13 13 98 98 98 98 98 175 208 208 208 208 208 208 153 153 153
 153 5 5 5 215 92 92 178 178 178 178 13 13 98 98 98 98 98 72 72
 72 74 74 74 74 74 153 153 153 153 153 5 5 92 92 92 178 178 178 178
 178 13 98 98 98 98 98 72 72 72 72 74 74 74 74 153 153 153 153 153
 54 92 92 92 92 178 178 178 178 135 135 135 98 98 98 72 72 72 72 72
 74 74 74 45 45 153 153 153 153 54 54 54 54 92 135 135 135 135 135 135
 135 135 210 210 210 72 72 72 45 45 45 45 45 45 45 153 153 54 54 54
 54 54 54 135 135 135 135 135 135 135 135 210 210 210 210 210 45 45 45 45
 45 45 45 45 45 110 54 54 54 54 54 54 135 135 135 135 135 135 135 135
 210 210 210 210 210 45 45 45 45 45 45 45 45 110 110 54 54 54 54 54
 54 135 135 135 135 135 135 135 135 210 210 210 210 210 210 45 45 45 45 45
 45 85 110 110 54 54 54 54 54 54 20 135 135 173 173 173 135 135 210 210
 210 210 66 66 45 45 45 45 85 85 85 110 110 54 54 54 54 54 54 20
 173 173 173 173 173 173 61 61 205 205 66 66 66 66 45 45 45 85 85 110
 110 110 110 110 54 54 54 54 193 241 241 241 241 241 61 61 61 205 205 66
 66 66 66 66 94 94 94 85 110 110 110 110 110 110 54 54 78 78 241 241
 241 241 241 61 61 61 61 205 66 66 66 66 66 94 94 94 94 110 110 110
 110 110 110 54 78 78 78 78 241 241 241 241 61 61 61 61 61 224 224 224
 224 94 94 94 94 94 94 110 110 110 233 184 184 78 78 78 78 78 241 241
 241 61 61 61 61 61 224 224 224 224 224 94 94 94 94 151 233 233 233 184
 184 184 78 78 78 78 78 241 241 241 61 61 61 61 224 224 224 224 224 224
 94 94 94 151 151 233 233 233 184 184 184 184 78 78 78 78 174 174 174 61
 61 61 61 224 224 224 224 224 224 94 94 147 147 147 147 233 233 184 184 184
 184 78 78 78 78 174 174 174 142 142 61 61 224 224 224 186 186 186 186 147
 147 147 147 147 147 184 184 184 184 184 78 78 201 201 174 174 174 142 142 32
 200 200 200 200 186 186 186 186 186 147 147 147 147 147 184 184 184 184 184 201
 201 201 201 201 174 174 183 32 32 32 32 200 200 186 186 186 186 186 147 147
 147 147 147 184 184 184 184 184 201 201 201 201 201 201 201 183 183 32 32 32
 32 211 186 186 186 186 186 147 147 17 147 17 184 134 134 134 33 33 33 122
 122 122 122 183 43 43 43 32 32 211 211 211 211 186 186 59 17 17 17 17
 17 17 134 134 33 33 33 33 122 122 122 122 122 43 43 43 32 32 137 137
 211 211 186 206 17 17 17 17 17 17 17 244 244 33 33 33 33 122 122 122
 122 122 43 43 43 43 137 137 137 137 137 206 206 206 17 17 17 17 17 17
 244 190 190 190 190 190 190 122 122 122 122 43 43 43 43 42 42 137 137 137
 206 206 206 17 17 17 17 17 17 39 39 39 190 190 190 190 165 165 165 2
 2 43 43 43 42 42 42 137 206 206 206 206 206 17 17 17 17 17 39 39
 39 190 190 190 190 204 204 2 2 2 2 2 43 42 42 42 137 206 206 206
 206 206 17 17 17 17 91 39 39 39 39 190 190 190 204 13 13 13 13 2
 2 98 98 98 74 74 74 74 74 74 74 153 153 153 153 153 215 215 5 39
 39 86 86 13 13 13 13 13 98 98 98 98 98 74 74 74 74 74 74 74
 153 153 153 153 153 215 215 5 39 86 86 86 13 13 13 13 13 98 98 98
 98 98 98 74 74 74 74 74 74 153 153 153 153 5 215 215 215 215 86 86
 86 178 13 13 13 13 98 98 98 98 98 98 74 74 74 74 74 74 153 153
 153 153 153 215 215 215 215 178 178 178 178 178 178 13 98 98 98 98 98 72
 72 72 74 74 74 74 74 153 153 153 153 153 215 215 215 215 178 178 178 178
 178 178 178 98 98 98 98 98 72 72 72 72 74 74 74 74 153 153 153 153
 153 215 215 215 178 178 178 178 178 178 178 135 135 98 98 98 72 72 72 72
 72 74 74 74 45 45 153 153 153 153 54 54 54 54 178 178 178 178 135 135
 135 135 135 98 98 72 72 72 72 45 45 45 45 45 45 45 132 110 110 54
 54 54 54 7 21 21 21 135 135 135 135 135 210 210 210 210 210 45 45 45
 45 45 45 45 45 132 110 110 54 54 54 54 7 21 21 21 135 135 135 135
 135 210 210 210 210 210 45 45 45 45 45 45 45 45 110 110 110 54 54 54
 54 54 21 21 21 135 135 135 135 210 210 210 210 210 210 45 45 45 45 45
 45 209 209 110 110 110 54 54 54 54 54 19 21 135 135 135 135 135 210 210
 210 210 210 210 66 45 45 45 45 209 209 110 110 110 110 110 54 54 54 19
 19 19 173 173 173 173 241 205 205 205 205 205 66 66 66 45 209 209 209 209
 110 110 110 110 110 54 54 54 19 191 191 241 241 241 241 241 61 205 205 205
 205 66 66 66 66 94 94 94 94 110 110 110 110 110 110 110 51 78 191 191
 241 241 241 241 241 61 61 205 205 205 205 66 66 94 94 94 94 94 110 110
 110 110 110 110 51 78 78 78 78 241 241 241 241 241 61 61 61 61 205 224
 224 224 94 94 94 94 94 94 110 110 110 110 184 78 78 78 78 78 78 241
 241 241 241 61 61 61 61 224 224 224 224 94 94 94 94 94 94 71 71 71
 184 184 184 78 78 78 78 78 241 241 241 61 61 61 61 224 224 224 224 224
 224 94 94 94 94 151 71 71 71 184 184 184 78 78 78 78 78 78 174 174
 61 61 61 61 224 224 224 224 224 224 94 94 94 151 151 71 71 71 184 184
 184 184 78 78 78 78 78 174 174 174 61 61 61 200 200 200 200 186 186 186
 94 147 147 147 147 71 184 184 184 184 184 78 78 201 201 201 174 174 174 32
 32 200 200 200 200 200 186 186 186 186 147 147 147 147 147 184 184 184 184 184
 78 201 201 201 201 201 201 201 32 32 32 32 200 200 200 186 186 186 186 147
 147 147 147 147 184 134 134 134 134 201 201 201 201 201 201 201 183 32 32 32
 32 32 200 200 186 186 186 186 17 17 17 17 17 17 134 134 134 33 33 33
 33 201 201 201 201 43 43 32 32 32 211 211 211 211 186 186 17 17 17 17
 17 17 17 134 134 134 33 33 33 33 122 122 122 122 43 43 43 32 32 32
 211 211 211 211 206 17 17 17 17 17 17 17 244 244 244 33 33 33 33 122
 122 122 122 43 43 43 32 32 137 137 137 137 206 206 206 17 17 17 17 17
 17 244 244 190 190 190 190 190 190 122 122 122 243 243 43 43 32 137 137 137
 137 206 206 206 17 17 17 17 17 17 39 39 39 190 190 190 190 190 190 165
 243 243 243 243 243 243 42 42 137 206 206 206 206 17 17 17 17 17 17 39
 39 39 39 190 190 190 190 190 190 243 243 243 243 243 243 42 130 130 74 74
 74 74 74 133 133 133 133 215 39 39 39 39 39 190 190 190 190 13 13 75
 243 98 98 98 98 130 74 74 74 74 74 74 133 133 133 133 215 215 215 39
 39 39 86 86 13 13 13 13 13 98 98 98 98 98 98 74 74 74 74 74
 74 153 153 153 153 215 215 215 215 39 86 86 86 13 13 13 13 98 98 98
 98 98 98 98 74 74 74 74 74 74 153 153 153 153 215 215 215 215 215 86
 86 86 178 178 13 13 98 98 98 98 98 98 72 74 74 74 74 74 74 74
 153 153 153 215 215 215 215 215 178 178 178 178 178 178 98 98 98 98 98 98
 72 72 72 74 74 74 74 74 74 153 153 153 153 215 215 215 178 178 178 178
 178 178 178 98 98 98 98 98 98 72 72 72 72 74 74 74 74 57 57 153
 153 153 215 215 215 178 178 178 178 178 178 178 194 98 98 98 98 98 72 72
 72 72 74 74 74 57 57 57 57 57 57 54 54 81 7 178 178 178 178 178
 135 135 135 98 98 98 210 72 72 72 45 45 45 45 45 45 132 132 132 132
 54 54 7 7 7 21 21 21 21 135 135 135 210 210 210 210 210 210 45 45
 45 45 45 45 45 132 132 132 132 54 54 7 7 7 21 21 21 21 21 135
 135 210 210 210 210 210 210 45 45 45 45 45 45 209 209 132 110 110 54 54
 7 7 7 19 21 21 21 21 135 135 210 210 210 210 210 210 210 45 45 45
 45 209 209 209 209 110 110 110 54 54 7 19 19 19 21 21 21 135 135 210
 210 210 210 210 210 210 45 45 45 209 209 209 209 110 110 110 110 54 54 7
 19 19 19 21 173 173 241 241 205 205 205 205 205 205 66 45 45 209 209 209
 209 110 110 110 110 110 54 51 51 51 191 191 191 241 241 241 241 61 205 205
 205 205 205 66 10 94 94 94 94 94 110 110 110 110 110 110 51 51 51 191
 191 191 241 241 241 241 61 61 205 205 205 10 10 10 94 94 94 94 94 94
 110 110 110 110 51 51 51 51 78 191 191 241 241 241 241 61 61 61 205 205
 10 10 10 94 94 94 94 94 94 110 110 110 110 51 51 51 78 78 191 191
 241 241 241 241 61 61 61 61 224 224 224 224 94 94 94 94 94 94 71 71
 71 184 184 184 78 78 78 78 78 241 241 241 241 61 61 61 224 224 224 224
 224 94 94 94 94 94 94 71 71 71 184 184 184 78 78 78 78 78 78 174
 241 241 61 61 61 187 224 224 224 224 94 94 94 94 151 151 71 71 71 184
 184 184 184 78 78 78 78 78 174 174 174 63 63 187 187 200 200 200 200 186
 67 94 147 147 147 147 71 184 184 184 184 184 78 78 201 201 201 201 174 63
 63 187 187 187 200 200 200 200 186 67 67 147 147 147 147 147 184 134 134 134
 134 78 201 201 201 201 201 201 63 187 187 187 187 200 200 200 200 186 186 67
 67 147 147 147 147 184 134 134 134 134 201 201 201 201 201 201 201 225 225 225
 32 32 32 211 211 211 186 67 67 17 17 17 17 17 134 134 134 134 134 33
 33 33 201 201 201 225 225 225 225 32 32 211 211 211 211 211 67 67 17 17
 17 17 17 134 134 134 134 33 33 33 33 33 122 122 225 225 225 225 32 32
 32 211 211 211 211 67 17 17 17 17 17 17 244 244 244 244 190 33 33 33
 33 122 122 122 243 243 243 32 32 32 211 211 211 211 206 17 17 17 17 17
 17 244 244 244 244 162 190 190 190 190 190 122 243 243 243 243 243 243 137 137
 137 137 206 206 206 17 17 17 17 17 244 39 39 39 162 190 190 190 190 190
 190 243 243 243 243 243 243 243 130 130 206 206 206 206 17 17 17 17 17 244
 39 39 39 39 39 190 190 190 190 190 243 243 243 243 243 243 130 130 130 74
 74 74 74 74 133 133 133 133 133 39 39 39 39 39 39 190 190 190 75 75
 75 75 243 98 98 130 130 130 74 74 74 74 74 133 133 133 133 133 215 215
 39 39 39 39 39 190 13 13 75 75 98 98 98 98 98 130 74 74 74 74
 74 74 133 133 133 133 215 215 215 215 39 39 86 86 86 13 13 13 98 98
 98 98 98 98 130 74 74 74 74 74 74 74 133 133 133 215 215 215 215 39
 39 86 86 178 178 13 13 98 98 98 98 98 98 72 74 74 74 74 74 74
 74 153 153 153 215 215 215 215 215 178 178 178 178 194 194 194 98 98 98 98
 98 98 72 72 74 74 74 57 57 57 57 57 57 57 81 81 81 81 178 178
 178 178 194 194 194 98 98 98 98 98 98 72 72 72 74 57 57 57 57 57
 57 57 57 81 81 81 7 178 178 178 178 194 194 194 194 98 98 98 98 72
 72 72 72 57 57 57 57 57 57 57 57 57 81 81 81 7 7 21 21 21
 21 21 194 194 98 98 98 210 72 69 65 65 45 57 57 57 57 132 132 132
 132 7 7 7 7 7 21 21 21 21 21 135 135 210 210 210 210 210 65 65
 65 45 45 45 45 132 132 132 132 132 7 7 7 7 7 19 21 21 21 21
 135 135 210 210 210 210 210 210 65 65 45 45 45 209 209 132 132 132 132 54
 7 7 7 7 19 19 21 21 21 21 55 55 210 210 210 210 198 198 65 45
 45 209 209 209 209 132 132 110 110 54 7 7 19 19 19 19 21 21 21 55
 55 55 210 210 198 198 198 45 45 209 209 209 209 209 110 110 110 110 110 7
 7 19 19 19 19 21 16 16 55 55 55 210 127 10 10 10 10 45 209 209
 209 209 209 110 110 110 110 51 51 51 51 19 191 191 191 16 16 16 55 127
 127 127 10 10 10 10 10 209 209 209 209 110 110 110 110 110 51 51 51 51
 191 191 191 191 16 16 16 61 61 114 10 10 10 10 10 10 94 94 94 94
 94 110 110 110 51 51 51 51 51 191 191 191 191 16 16 16 61 114 114 114
 10 10 10 10 94 94 94 94 94 94 110 110 110 51 51 51 51 51 191 191
 191 191 16 16 16 61 61 114 114 10 10 10 38 94 94 94 94 94 94 71
 71 71 51 51 51 51 78 78 78 191 191 16 16 16 61 61 61 114 224 224
 224 38 38 94 94 94 94 94 71 71 71 184 184 51 78 78 78 78 78 191
 16 16 16 63 63 187 187 187 224 38 38 38 38 94 94 94 94 71 71 71
 184 184 184 78 78 78 78 78 201 201 174 63 63 63 187 187 187 200 200 67
 67 67 67 67 147 147 147 71 184 134 134 134 76 78 78 201 201 201 201 63
 63 63 63 187 187 187 200 200 67 67 67 67 67 67 147 147 147 184 134 134
 134 134 76 201 201 201 201 201 63 63 63 63 187 187 187 200 200 67 67 67
 67 67 67 17 17 70 134 134 134 134 134 76 76 201 201 201 201 225 225 225
 225 225 187 187 211 211 211 67 67 67 67 17 17 17 17 134 134 134 134 134
 134 33 33 201 201 225 225 225 225 225 225 32 211 211 211 211 67 67 67 17
 17 17 17 17 134 244 134 134 134 33 33 33 33 122 225 225 225 225 225 225
 32 32 211 211 211 67 67 17 17 17 17 17 17 244 244 244 244 162 162 33
 33 33 122 212 225 225 225 225 243 32 32 211 211 211 67 67 17 17 17 17
 17 17 244 244 244 162 162 162 190 190 190 190 212 243 243 243 243 243 243 130
 130 130 130 206 206 17 17 17 17 17 17 244 39 39 162 162 162 190 190 190
 190 75 75 243 243 243 243 243 130 130 130 130 130 206 206 133 133 133 133 133
 133 39 39 39 39 39 39 190 190 190 75 75 75 243 243 243 243 130 130 130
 130 74 74 74 133 133 133 133 133 133 39 39 39 39 39 39 39 190 75 75
 75 75 75 243 243 130 130 130 130 130 74 74 74 133 133 133 133 133 133 39
 39 39 39 39 39 39 39 75 75 75 75 75 98 98 98 130 130 130 74 74
 74 74 74 133 133 133 133 133 39 39 39 39 39 39 39 39 75 75 75 75
 98 98 98 98 98 130 130 74 74 74 74 74 133 133 133 133 133 39 39 39
 39 39 39 39 178 194 194 75 98 98 98 98 98 98 130 74 74 74 74 74
 74 74 133 133 133 133 125 125 81 81 81 178 194 194 194 194 194 194 98 98
 98 98 69 69 69 69 57 57 57 57 57 57 57 57 57 81 81 81 81 81
 178 178 194 194 194 194 194 98 98 98 69 69 69 69 69 57 57 57 57 57
 57 57 57 57 81 81 81 81 81 81 194 194 194 194 194 194 194 98 69 69
 69 69 69 69 57 57 57 57 57 57 57 57 57 81 81 81 81 81 81 21
 21 194 194 194 194 194 98 69 69 69 69 69 65 35 35 57 57 57 132 132
 132 132 81 81 7 7 7 7 21 21 21 21 194 194 55 55 55 198 198 69
 65 65 35 35 35 132 132 132 132 132 132 7 7 7 7 7 7 21 21 21
 21 21 55 55 55 55 198 198 198 65 65 65 35 35 209 132 132 132 132 132
 7 7 7 7 7 19 19 21 21 21 21 55 55 55 55 198 198 198 198 65
 35 35 209 209 209 132 132 132 132 110 7 7 7 7 19 19 19 21 21 55
 55 55 55 55 198 198 198 198 198 35 209 209 209 209 209 132 132 110 110 7
 7 7 7 19 19 19 19 16 55 55 55 55 127 127 10 10 10 10 35 209
 209 209 209 209 110 110 110 110 51 51 51 51 19 191 191 191 16 16 55 55
 127 127 127 10 10 10 10 10 209 209 209 209 209 110 110 110 51 51 51 51
 51 51 191 191 191 16 16 16 55 127 114 114 10 10 10 10 38 38 94 94
 94 94 110 110 110 51 51 51 51 51 51 191 191 16 16 16 16 16 114 114
 114 114 10 10 10 38 38 38 94 94 94 68 110 110 51 51 51 51 51 51
 191 191 16 16 16 16 16 114 114 114 114 10 10 38 38 38 38 38 94 68
 68 31 31 51 51 51 51 51 51 191 191 191 16 16 16 16 114 114 114 114
 10 38 38 38 38 38 38 94 94 31 71 71 51 51 51 51 51 51 78 78
 191 16 16 63 63 63 63 187 187 10 38 38 38 38 38 38 38 70 31 31
 31 184 51 51 51 78 78 78 78 201 16 63 63 63 63 63 187 187 187 200
 67 67 38 38 38 70 70 70 31 31 134 134 76 76 76 76 201 201 201 201
 63 63 63 63 63 187 187 187 200 67 67 67 67 67 67 70 70 70 70 134
 134 76 76 76 76 201 201 201 201 63 63 63 63 63 187 187 187 200 67 67
 67 67 67 67 70 70 70 70 134 134 134 76 76 76 76 26 201 63 63 63
 63 63 63 187 187 187 211 67 67 67 67 67 67 70 70 70 134 134 134 134
 76 76 26 26 26 26 225 225 225 225 225 225 225 211 211 211 67 67 67 67
 67 17 17 17 17 134 244 134 134 76 76 26 33 26 212 212 225 225 225 225
 225 225 32 211 211 211 67 67 67 17 17 17 17 17 244 244 244 244 162 162
 33 33 212 212 212 212 243 225 243 243 243 32 130 130 130 67 67 17 17 17
 17 17 17 244 244 244 162 162 162 190 190 212 212 212 212 243 243 243 243 243
 130 130 130 130 130 79 79 79 17 17 17 231 231 115 39 162 162 162 39 190
 212 212 212 75 75 243 243 243 243 130 130 130 130 130 130 79 133 133 133 133
 133 115 115 115 39 39 39 39 39 212 212 75 75 75 75 243 243 130 130 130
 130 130 130 130 133 133 133 133 133 133 115 115 115 39 39 39 39 39 212 212
 75 75 75 75 75 75 130 130 130 130 130 130 74 74 133 133 133 133 133 115
 115 115 39 39 39 39 39 39 212 75 75 75 75 75 75 130 130 130 130 130
 74 74 74 74 133 133 133 133 115 115 39 39 39 39 39 39 39 75 75 75
 75 75 98 98 98 130 130 130 130 74 74 74 57 133 133 133 133 115 115 39
 39 39 39 39 39 194 194 194 194 98 98 98 98 98 98 69 69 74 74 74
 57 57 57 57 133 133 115 125 125 81 81 81 194 194 194 194 194 194 194 98
 98 69 69 69 69 69 69 57 57 57 57 57 57 57 57 57 81 81 81 81
 81 81 194 194 194 194 194 194 194 98 69 69 69 69 69 69 57 57 57 57
 57 57 57 57 57 81 81 81 81 81 81 81 194 194 194 194 194 194 69 69
 69 69 69 69 69 57 57 57 57 57 57 57 57 57 81 81 81 81 81 81
 21 93 93 93 93 93 93 69 69 69 69 69 69 65 35 35 57 57 57 132
 132 132 132 81 81 81 81 7 7 7 21 93 93 93 93 55 55 55 69 69
 69 65 65 35 35 35 132 132 132 132 132 132 81 81 7 7 7 7 7 21
 21 41 93 55 55 55 55 198 198 198 65 65 35 35 35 132 132 132 132 132
 132 7 7 7 7 7 7 7 7 21 21 93 55 55 55 55 198 198 198 198
 65 35 35 35 209 132 132 132 132 132 7 7 7 7 7 7 7 7 21 21
 55 55 55 55 55 198 198 198 198 198 35 35 35 209 209 132 132 132 132 110
 7 7 7 7 7 7 7 7 234 55 55 55 55 55 127 10 10 10 10 35
 209 209 209 209 46 46 46 110 51 51 51 51 51 7 7 7 234 234 234 55
 55 127 127 127 10 10 10 10 10 38 209 209 209 68 68 68 110 51 51 51
 51 51 51 191 191 234 234 234 234 55 127 127 114 10 10 10 10 38 38 38
 68 68 68 68 68 68 73 51 51 51 51 51 191 191 234 234 234 234 234 114
 114 114 114 10 10 38 38 38 38 38 68 68 68 31 31 51 51 51 51 51
 51 191 191 234 234 234 234 234 114 114 114 114 10 10 38 38 38 38 38 68
 68 68 31 31 51 51 51 51 51 51 191 191 234 234 234 234 234 114 114 114
 114 10 38 38 38 38 38 38 68 68 31 31 31 31 51 51 51 51 51 78
 78 234 234 234 63 63 63 114 114 114 10 38 38 38 38 38 38 38 70 31
 31 31 31 51 51 51 51 76 76 78 234 234 63 63 63 63 63 63 187 187
 38 38 38 38 38 38 70 70 70 31 31 76 76 76 76 76 76 76 26 201
 63 63 63 63 63 63 63 187 187 67 67 67 67 67 67 70 70 70 70 70
 76 76 76 76 76 76 26 26 26 63 63 63 63 63 63 63 187 187 67 67
 67 67 67 67 70 70 70 70 70 76 76 76 76 76 76 26 26 26 26 63
 63 63 63 63 63 187 187 67 67 67 67 67 67 70 70 70 70 70 134 76
 76 76 76 26 26 26 26 212 63 63 63 63 63 63 63 211 211 67 67 67
 67 67 70 70 70 70 70 244 134 76 76 26 26 26 26 212 212 212 212 225
 225 225 63 63 211 211 67 67 67 67 67 70 70 70 70 231 244 244 244 162
 26 26 26 212 212 212 212 212 243 243 243 130 130 130 130 130 79 79 79 79
 79 79 231 231 231 244 244 162 162 162 190 212 212 212 212 212 212 243 243 243
 130 130 130 130 130 130 79 79 79 79 79 231 231 231 115 115 39 39 39 39
 212 212 212 212 212 75 75 243 243 130 130 130 130 130 130 79 79 79 79 79
 231 231 231 115 115 115 39 39 39 212 212 212 212 75 75 75 75 130 130 130
 130 130 130 130 79 79 79 79 133 231 231 115 115 115 115 39 39 39 39 212
 212 75 75 75 75 75 130 130 130 130 130 130 130 130 79 133 133 133 133 133
 115 115 115 115 39 39 39 39 212 212 75 75 75 75 75 130 130 130 130 130
 130 130 74 74 57 133 133 133 115 115 115 115 39 39 39 39 39 212 212 75
 75 75 75 75 130 130 130 130 130 22 22 57 57 57 57 133 133 23 115 125
 125 39 39 39 39 39 194 194 194 194 75 75 98 98 69 69 69 69 22 22
 57 57 57 57 57 57 23 125 125 125 125 125 81 81 159 159 159 159 159 159
 159 69 69 69 69 69 69 69 69 57 57 57 57 57 57 57 203 81 81 81
 81 81 81 159 159 159 159 159 159 159 69 69 69 69 69 69 69 69 57 57
 57 57 57 57 57 203 81 81 81 81 81 81 81 93 93 93 159 159 159 69
 69 69 69 69 69 69 69 57 57 57 57 57 57 203 203 81 81 81 81 81
 81 81 93 93 93 93 93 93 69 69 69 69 69 69 69 35 35 57 57 57
 132 132 132 132 81 81 81 81 81 81 7 93 93 93 93 93 93 55 6 6
 6 69 65 65 35 35 35 132 132 132 132 132 132 81 81 81 81 7 7 7
 7 41 41 41 93 55 55 55 6 198 198 65 65 35 35 35 132 132 132 132
 132 132 81 81 7 7 7 7 7 7 41 41 41 55 55 55 55 198 198 198
 198 65 35 35 35 35 132 132 132 132 132 7 7 7 7 7 7 7 7 41
 41 41 55 55 55 55 198 198 198 198 198 35 35 35 46 46 46 46 46 46
 7 7 7 7 7 7 7 7 7 234 234 55 55 55 55 127 10 10 10 10
 35 35 209 46 46 46 46 46 46 51 51 51 51 51 7 7 234 234 234 234
 234 55 127 127 127 10 10 10 10 10 38 209 68 68 68 68 68 68 73 73
 51 51 51 51 51 234 234 234 234 234 55 127 127 127 10 10 10 10 10 38
 68 68 68 68 68 68 68 73 73 51 51 51 51 51 234 234 234 234 234 234
 114 114 114 114 10 10 38 38 38 38 68 68 68 68 31 31 73 73 51 51
 51 51 51 234 234 234 234 234 234 114 114 114 114 10 10 38 38 38 38 38
 68 68 68 31 31 31 51 51 51 51 51 51 234 234 234 234 234 234 114 114
 114 114 10 38 38 38 38 38 38 68 68 31 31 31 31 51 51 51 51 51
 51 234 234 234 234 234 63 63 114 114 114 10 38 38 38 38 38 38 70 70
 31 31 31 31 76 76 51 76 76 76 26 150 150 63 63 63 63 63 63 187
 38 38 38 38 38 38 38 70 70 70 31 31 76 76 76 76 76 76 76 26
 150 150 63 63 63 63 63 63 187 187 67 67 67 67 67 67 70 70 70 70
 31 76 76 76 76 76 26 26 26 26 150 63 63 63 63 63 63 187 187 67
 67 67 67 67 67 213 70 70 70 70 76 76 76 76 76 26 26 26 26 150
 63 63 63 63 63 63 63 63 67 67 67 67 67 67 70 70 70 70 70 76
 76 76 76 26 26 26 26 26 212 212 63 63 63 63 63 245 245 67 67 67
 67 67 161 70 70 70 70 70 76 76 76 76 26 26 26 26 212 212 212 212
 63 225 63 245 245 56 56 56 56 67 67 161 70 70 70 70 231 231 244 244
 26 26 26 26 212 212 212 212 212 212 80 243 130 130 130 130 130 79 79 79
 79 79 79 231 231 231 231 231 162 162 26 26 212 212 212 212 212 212 212 243
 243 130 130 130 130 130 130 79 79 79 79 79 231 231 231 231 115 115 39 39
 39 212 212 212 212 212 212 75 75 130 130 130 130 130 130 79 79 79 79 79
 79 231 231 231 115 115 115 39 39 39 212 212 212 212 212 75 75 75 130 130
 130 130 130 130 152 79 79 79 79 79 231 231 231 115 115 115 39 39 39 212
 212 212 212 75 75 75 75 130 130 130 130 130 152 152 79 79 79 79 79 231
 231 115 115 115 115 39 39 39 39 212 212 75 75 75 75 75 130 130 130 130
 130 22 22 22 79 79 79 133 23 23 125 125 125 125 125 39 39 39 212 212
 75 75 75 75 75 130 130 130 130 22 22 22 22 57 57 57 23 23 23 125
 125 125 125 125 39 39 159 159 159 159 116 75 75 75 69 69 69 69 22 22
 22 57 57 57 57 57 23 23 125 125 125 125 125 125 81 159 159 159 159 116
 116 116 69 69 69 69 69 69 69 69 57 57 57 57 57 23 203 203 125 81
 81 81 81 81 89 159 159 116 159 159 159 69 69 69 69 69 69 69 69 57
 57 57 57 57 203 203 203 81 81 81 81 81 81 89 93 93 93 159 159 159
 69 69 69 69 69 69 69 69 57 57 57 57 57 203 203 203 81 81 81 81
 81 81 89 89 93 93 93 93 93 6 6 69 69 69 69 69 69 35 57 57
 57 57 132 203 203 81 81 81 81 81 81 89 89 93 93 93 93 93 6 6
 6 6 6 65 65 35 35 35 132 132 132 132 132 132 81 81 81 81 81 7
 7 7 41 41 41 93 93 6 6 6 6 6 65 65 35 35 35 132 132 132
 132 132 132 81 81 7 7 7 7 7 7 41 41 41 93 55 55 6 6 6
 198 198 65 35 35 35 46 46 46 46 46 46 7 7 7 7 7 7 7 7
 41 41 41 55 55 55 6 6 198 198 198 198 35 35 35 46 46 46 46 46
 46 138 138 138 138 7 7 7 7 234 41 234 55 55 55 55 10 10 10 10
 10 10 35 209 46 46 46 46 46 46 73 73 138 138 138 7 7 234 234 234
 234 234 55 127 127 127 10 10 10 10 10 10 68 68 68 68 68 68 68 73
 73 73 51 51 51 51 234 234 234 234 234 234 127 127 127 10 10 10 10 10
 38 68 68 68 68 68 68 68 73 73 73 51 51 51 51 234 234 234 234 234
 234 114 114 114 10 10 10 10 38 38 38 68 68 68 68 31 31 73 73 73
 51 51 51 51 234 234 234 234 234 234 114 114 114 114 10 10 38 38 38 38
 68 68 68 31 31 31 31 73 51 51 51 51 51 234 234 234 234 234 234 114
 114 114 114 10 38 38 38 38 38 68 68 68 31 31 31 31 73 51 51 51
 51 103 103 234 234 234 234 234 63 114 114 114 60 38 38 38 38 38 70 70
 31 31 31 31 31 76 76 76 76 26 177 177 150 150 150 63 63 63 63 63
 60 60 38 38 67 67 67 70 70 70 70 31 31 76 76 76 76 76 26 177
 177 150 150 150 63 63 63 63 63 63 60 67 67 67 67 67 70 70 70 70
 70 31 76 76 76 76 76 26 26 177 177 150 150 63 63 63 63 63 63 63
 67 67 67 67 67 213 213 70 213 213 213 76 76 76 76 26 26 26 26 177
 150 150 63 63 63 63 245 245 245 67 67 67 67 161 161 70 70 70 70 70
 76 76 76 76 26 26 26 26 26 150 150 80 63 63 245 245 245 245 56 56
 56 161 161 161 161 70 70 70 70 76 76 76 26 26 26 26 26 212 212 212
 80 166 166 245 245 245 56 56 56 56 161 161 161 161 70 70 70 231 231 76
 76 26 26 26 26 212 212 212 212 80 80 80 80 245 130 56 56 56 56 79
 79 79 79 79 231 231 231 231 231 162 26 26 26 212 212 212 212 212 212 80
 80 80 130 130 130 130 56 56 79 79 79 79 79 231 231 231 231 125 115 39
 39 26 212 212 212 212 212 212 212 75 130 130 130 130 130 130 79 79 79 79
 79 79 231 231 231 125 125 125 125 125 212 212 212 212 212 212 212 75 75 130
 130 130 130 130 152 152 79 79 79 79 79 231 231 231 125 125 125 125 125 39
 212 212 212 212 212 75 75 75 130 130 130 130 130 152 152 79 79 79 79 79