# vtk DataFile Version 2.0
Data set from ImportExport Version 6.5.171.b0b162591
ASCII

DATASET RECTILINEAR_GRID
DIMENSIONS 30 30 30
X_COORDINATES 30 float
-1.250000 1.250000 3.750000 6.250000 8.750000 11.250000 13.750000 16.250000 18.750000 21.250000 23.750000 26.250000 28.750000 31.250000 33.750000 36.250000 38.750000 41.250000 43.750000 46.250000 48.750000 
51.250000 53.750000 56.250000 58.750000 61.250000 63.750000 66.250000 68.750000 71.250000 
Y_COORDINATES 30 float
-1.250000 1.250000 3.750000 6.250000 8.750000 11.250000 13.750000 16.250000 18.750000 21.250000 23.750000 26.250000 28.750000 31.250000 33.750000 36.250000 38.750000 41.250000 43.750000 46.250000 48.750000 
51.250000 53.750000 56.250000 58.750000 61.250000 63.750000 66.250000 68.750000 71.250000 
Z_COORDINATES 30 float
-1.250000 1.250000 3.750000 6.250000 8.750000 11.250000 13.750000 16.250000 18.750000 21.250000 23.750000 26.250000 28.750000 31.250000 33.750000 36.250000 38.750000 41.250000 43.750000 46.250000 48.750000 
51.250000 53.750000 56.250000 58.750000 61.250000 63.750000 66.250000 68.750000 71.250000 
CELL_DATA 24389
SCALARS FeatureIds int 1
LOOKUP_TABLE default
 200 200 200 107 107 107 107 81 81 81 81 81 81 81 240 240 33 33 33 33
 233 233 233 45 45 45 200 200 200 200 200 200 107 107 107 154 154 154 154 81
 81 81 81 240 240 33 33 33 33 233 233 233 45 45 45 45 45 200 200 200
 200 36 36 36 225 225 154 154 81 81 81 81 240 240 33 33 33 33 233 233
 45 45 45 45 45 45 45 200 200 36 36 36 36 36 225 154 154 81 81 81
 81 240 240 33 33 33 33 233 233 45 45 45 45 45 45 45 19 36 36 36
 36 36 36 36 36 211 81 81 81 232 232 232 232 33 33 33 233 45 45 45
 45 45 45 45 45 19 36 36 36 36 36 36 36 36 138 138 232 232 232 232
 232 232 232 232 33 152 45 45 45 45 45 45 45 45 191 191 191 36 36 36
 36 36 138 138 138 232 232 232 232 232 232 232 232 152 152 152 45 45 45 45
 45 45 45 46 191 191 191 36 36 36 36 138 138 138 138 232 232 232 232 232
 232 152 152 152 152 91 45 45 45 45 45 45 46 191 191 191 191 36 36 138
 138 138 138 138 232 232 232 232 232 232 152 152 152 152 91 91 45 45 45 45
 45 12 121 191 191 191 36 138 138 138 138 138 138 232 232 232 232 232 2 152
 152 152 152 91 91 45 45 45 12 12 12 121 121 30 30 132 132 138 138 138
 138 138 138 232 232 2 2 2 2 152 152 152 152 91 45 12 12 12 12 12
 121 121 30 30 192 192 138 138 138 138 138 138 232 232 2 2 2 2 2 152
 152 152 91 12 12 12 12 12 12 121 121 192 192 192 192 192 138 143 143 143
 143 196 196 2 2 2 2 2 152 152 152 12 12 12 12 12 12 12 121 192
 192 192 192 192 192 143 143 143 143 143 143 196 196 2 2 2 2 2 2 17
 17 17 140 140 140 140 140 153 153 192 192 192 192 192 143 143 143 143 143 143
 196 196 2 2 2 159 159 16 17 17 17 140 140 140 140 140 153 153 153 153
 192 192 192 143 143 143 143 143 143 143 159 159 159 159 159 159 16 17 17 17
 140 140 140 140 140 153 153 153 153 153 153 143 143 143 143 143 143 143 143 159
 159 159 159 159 16 16 16 17 17 140 140 140 140 153 153 153 153 153 153 153
 153 143 143 143 143 143 143 143 159 159 159 159 159 16 16 16 64 64 64 140
 140 140 153 153 153 153 153 153 153 153 143 143 143 143 143 143 159 159 159 159
 159 16 16 16 95 64 64 64 64 64 140 86 77 77 77 77 77 77 77 239
 239 239 239 239 239 159 159 159 159 159 16 16 95 95 64 64 64 64 86 86
 86 77 77 77 77 77 77 77 239 239 239 239 239 239 239 159 159 159 159 16
 95 95 95 64 64 64 86 86 86 86 97 97 97 97 97 97 97 239 239 239
 239 239 239 239 148 148 148 148 148 95 95 95 64 64 86 86 86 86 86 97
 97 97 97 97 97 239 239 239 239 239 239 239 239 148 148 148 59 59 59 59
 7 7 86 86 86 86 86 86 86 97 97 97 97 42 42 239 239 239 239 239
 246 246 246 59 59 59 59 59 59 7 7 7 86 86 86 86 200 200 76 76
 76 76 42 42 42 42 239 239 239 246 246 82 59 59 59 59 59 7 7 7
 7 86 86 86 86 200 200 200 107 107 107 42 42 42 42 42 239 239 82 82
 82 59 59 59 59 59 7 7 7 7 7 200 200 200 200 200 107 107 107 107
 42 42 42 42 42 239 82 82 82 82 82 59 59 59 59 238 7 7 7 7
 200 200 200 200 200 107 107 107 107 42 42 42 42 81 81 81 82 82 82 82
 82 59 59 59 238 238 7 7 7 200 200 200 200 200 200 107 107 107 107 42
 42 81 81 81 81 81 240 240 33 33 33 33 238 238 238 7 7 7 200 200
 200 200 200 200 107 107 107 107 107 81 81 81 81 81 204 204 33 33 33 33
 33 33 33 33 45 45 45 45 200 200 200 200 200 107 107 107 107 211 211 211
 211 81 81 204 204 33 33 33 33 33 33 33 33 45 45 45 45 19 19 200
 200 200 107 36 36 36 211 211 211 211 81 81 204 204 33 33 33 33 33 33
 33 45 45 45 45 45 19 19 19 19 36 36 36 36 36 211 211 211 211 81
 81 204 204 33 33 33 33 33 33 33 45 45 45 45 45 19 19 19 19 36
 36 36 36 36 36 211 211 211 211 81 232 232 232 33 33 33 33 33 45 45
 45 45 45 45 45 19 19 36 36 36 36 36 36 36 36 211 211 211 232 232
 232 232 232 232 232 33 45 45 45 45 45 45 45 45 45 46 191 191 36 36
 36 36 36 36 138 138 232 232 232 232 232 232 232 232 152 152 45 45 45 45
 45 45 45 45 46 46 46 36 36 36 36 36 138 138 138 138 232 232 232 232
 232 232 152 152 152 152 45 45 45 45 45 45 45 46 46 46 36 36 36 36
 36 138 138 138 138 232 232 232 232 232 232 152 152 152 152 91 45 45 45 45
 45 12 46 46 46 30 30 30 30 30 138 138 138 138 232 232 232 232 232 2
 152 152 152 152 152 45 45 45 45 12 12 12 46 46 30 30 30 30 30 68
 68 68 68 232 232 232 2 2 2 2 152 152 152 152 45 45 45 12 12 12
 12 46 46 30 30 30 30 30 68 68 68 68 143 143 226 2 2 2 2 2
 152 152 152 45 12 12 12 12 12 12 121 192 192 192 192 192 192 68 68 68
 143 143 143 226 2 2 2 2 2 152 152 152 12 12 12 12 12 12 12 121
 192 192 192 192 192 192 143 143 143 143 143 143 226 226 2 2 2 2 2 2
 2 17 17 140 140 140 12 140 153 153 192 192 192 192 192 143 143 143 143 143
 143 226 226 226 226 2 2 2 2 17 17 17 140 140 140 140 140 153 153 153
 153 192 192 192 143 143 143 143 143 143 143 159 159 159 159 159 159 16 17 17
 100 140 140 140 140 140 153 153 153 153 153 153 153 143 143 143 143 143 143 143
 159 159 159 159 159 16 16 16 100 100 100 140 140 140 153 153 153 153 153 153
 153 153 143 143 143 143 143 143 143 159 159 159 159 159 16 16 16 100 100 100
 140 140 140 153 153 153 153 153 153 153 153 143 143 143 143 143 143 159 159 159
 159 159 159 16 16 95 64 64 64 64 113 113 86 77 77 77 77 77 153 153
 239 239 239 239 239 239 239 159 159 159 159 159 16 95 95 64 64 64 64 86
 86 86 77 77 77 77 77 77 77 239 239 239 239 239 239 239 148 148 148 148
 148 95 95 95 64 64 64 86 86 86 86 97 97 97 97 97 97 97 239 239
 239 239 239 239 239 148 148 148 148 148 95 95 95 64 64 86 86 86 86 86
 97 97 97 97 97 97 97 239 239 239 239 239 239 239 148 148 148 148 148 59
 59 248 64 64 86 86 86 86 86 97 97 97 97 97 97 42 239 239 239 239
 239 239 239 148 148 59 59 59 59 59 248 248 86 86 86 86 86 200 200 200
 107 107 107 42 42 42 42 239 239 239 239 82 82 59 59 59 59 59 59 248
 248 248 86 86 86 86 200 200 200 107 107 107 42 42 42 42 42 239 239 82
 82 82 82 59 59 59 59 59 248 248 248 248 86 86 200 200 200 200 107 107
 107 42 42 42 42 15 239 82 82 82 82 82 82 59 59 59 59 248 248 248
 248 200 200 200 200 200 107 107 107 107 107 42 42 15 81 81 82 82 82 82
 82 82 59 59 59 59 238 248 248 248 200 200 200 200 200 200 107 107 107 107
 107 15 81 81 81 81 82 82 82 33 33 33 33 238 238 238 248 248 194 200
 200 200 200 200 200 107 107 107 107 211 211 211 211 211 204 204 204 204 33 33
 33 33 33 33 33 194 194 194 19 19 200 200 200 200 107 107 107 107 211 211
 211 211 211 204 204 204 204 204 33 33 33 33 33 33 45 45 45 19 19 19
 19 200 200 107 36 36 211 211 211 211 211 211 211 204 204 204 33 33 33 33
 33 33 45 45 45 45 19 19 19 19 19 36 36 36 36 36 211 211 211 211
 211 211 204 204 204 33 33 33 33 33 33 45 45 45 45 19 19 19 19 19
 36 36 36 36 36 36 211 211 211 211 211 232 204 232 33 33 33 33 33 45
 45 45 45 45 45 19 19 19 19 36 36 36 36 36 36 211 211 211 211 232
 232 232 232 232 232 232 33 152 45 45 45 45 45 45 45 19 46 46 36 36
 36 36 36 36 36 211 211 232 232 232 232 232 232 232 232 152 152 45 45 45
 45 45 45 45 19 46 46 46 36 36 36 36 36 36 138 78 232 232 232 232
 232 232 232 152 152 152 152 45 45 45 45 45 45 45 46 46 46 46 36 36
 36 36 138 138 138 232 232 232 232 232 232 171 152 152 152 152 152 45 45 45
 45 45 46 46 46 46 46 30 30 30 30 68 68 68 68 232 232 232 232 171
 171 152 152 152 152 152 45 45 45 53 53 46 46 46 46 30 30 30 30 30
 68 68 68 68 68 232 232 2 2 2 2 152 152 152 152 45 53 53 53 53
 12 12 46 46 30 30 30 30 30 68 68 68 68 68 226 226 2 2 2 2
 2 152 152 11 11 53 53 53 12 12 12 46 30 30 30 30 30 30 68 68
 68 68 143 226 226 226 2 2 2 2 152 11 11 53 53 53 53 53 12 12
 46 30 192 192 192 192 30 68 68 143 143 143 226 226 226 226 2 2 2 2
 11 11 53 53 53 53 53 53 140 153 153 192 192 192 192 192 143 143 143 143
 143 143 226 226 226 226 2 159 159 11 100 100 100 140 140 140 140 140 153 153
 153 153 192 192 192 143 143 143 143 143 143 226 226 159 159 159 159 159 221 100
 100 100 100 140 140 140 140 153 153 153 153 153 153 153 143 143 143 143 143 143
 143 159 159 159 159 159 159 221 100 100 100 100 140 140 140 153 153 153 153 153
 153 153 153 143 143 143 143 143 143 143 159 159 159 159 159 159 221 100 100 100
 100 100 113 113 113 153 153 153 153 153 153 153 143 143 143 143 143 143 159 159
 159 159 159 159 16 221 221 64 64 64 113 113 113 113 77 77 77 77 77 77
 77 239 239 239 239 239 239 239 159 159 159 159 159 16 221 64 64 64 64 113
 113 113 86 77 77 77 77 77 77 77 239 239 239 239 239 239 239 148 148 148
 148 148 148 95 64 64 64 64 86 86 86 86 97 97 97 97 97 97 97 239
 239 239 239 239 239 239 148 148 148 148 148 148 148 64 64 64 86 86 86 86
 86 97 97 97 97 97 97 239 239 239 239 239 239 239 239 148 148 148 148 148
 148 248 248 248 86 86 86 86 86 86 86 97 97 97 97 212 212 239 239 239
 239 239 239 239 148 148 148 59 59 59 248 248 248 248 86 86 86 86 200 200
 200 107 107 107 212 212 212 239 239 239 239 239 82 82 82 59 59 59 59 248
 248 248 248 248 86 86 86 200 200 200 107 107 107 212 212 15 15 15 15 82
 82 82 82 82 59 59 59 59 248 248 248 248 248 248 86 200 200 200 200 107
 107 107 107 212 15 15 15 15 82 82 82 82 82 82 59 59 59 59 248 248
 248 248 248 200 200 200 200 200 107 107 107 107 15 15 15 15 15 82 82 82
 82 82 82 59 59 59 59 248 248 248 248 248 200 200 200 200 200 107 107 107
 107 15 15 15 15 15 82 82 82 82 82 33 33 33 59 59 248 248 248 194
 194 200 200 168 168 200 107 107 107 107 211 211 211 211 211 204 204 204 204 204
 204 33 33 33 43 43 194 194 194 194 194 194 200 200 200 107 107 107 211 211
 211 211 211 211 204 204 204 204 204 204 33 33 33 33 108 108 194 194 194 19
 19 19 19 200 36 36 36 211 211 211 211 211 211 230 204 204 204 204 33 33
 33 33 108 108 108 45 19 19 19 19 19 19 36 36 36 36 36 211 211 211
 211 211 230 230 204 204 204 33 33 33 33 108 108 108 45 45 19 19 19 19
 19 36 36 36 36 36 211 211 211 211 211 230 230 230 204 204 33 33 33 33
 108 108 45 45 45 19 19 19 19 19 36 36 36 36 36 36 211 211 211 211
 232 232 232 232 232 232 33 33 152 45 45 45 45 45 45 19 19 46 46 36
 36 36 36 36 36 36 211 211 211 232 232 232 232 232 232 232 152 152 45 45
 45 45 45 45 45 19 46 46 46 249 249 249 249 249 78 78 78 78 232 232
 232 232 232 171 171 152 152 152 45 45 45 45 45 45 45 46 46 46 46 249
 249 249 249 78 78 78 78 232 232 232 232 171 171 171 152 152 152 152 45 70
 70 70 70 46 46 46 46 46 30 30 30 30 68 78 78 78 78 232 232 171
 171 171 171 152 152 11 11 70 70 70 53 53 46 46 46 46 30 30 30 30
 30 68 68 68 68 68 216 232 171 171 171 171 11 11 11 11 70 70 53 53
 53 53 53 46 46 30 30 30 30 30 68 68 68 68 68 226 226 226 2 2
 2 11 11 11 11 11 70 53 53 53 53 53 46 30 30 30 30 30 30 68
 68 68 68 68 226 226 226 226 2 2 11 11 11 11 11 53 53 53 53 53
 53 46 30 30 30 30 30 30 68 68 68 26 143 226 226 226 226 226 2 11
 11 11 11 100 100 53 53 53 53 140 224 153 192 192 192 30 117 117 143 26
 26 26 226 226 226 226 226 226 75 75 75 221 100 100 100 140 140 140 140 224
 224 224 224 224 192 117 143 143 26 26 26 143 226 226 226 159 75 75 75 221
 221 100 100 100 100 140 140 224 224 224 224 224 224 224 117 143 143 26 26 26
 143 143 159 159 159 159 75 75 221 221 100 100 100 100 140 140 153 224 224 224
 224 224 224 224 143 143 143 26 88 143 159 159 159 159 159 75 75 221 221 100
 100 100 100 113 113 113 224 224 224 224 224 224 224 88 88 88 88 88 88 159
 159 159 159 159 75 221 221 221 100 100 100 113 113 113 113 224 224 224 224 224
 224 224 172 172 172 172 172 172 159 159 148 148 148 148 221 221 221 64 64 113
 113 113 113 113 224 77 77 77 77 77 172 172 172 172 172 172 172 172 148 148
 148 148 148 148 221 64 64 64 113 113 113 113 86 97 97 97 97 97 97 172
 172 172 172 172 172 172 172 148 148 148 148 148 148 148 248 64 64 86 86 86
 86 86 86 97 97 97 97 212 212 172 172 172 172 172 172 172 148 148 148 148
 148 148 248 248 248 86 86 86 86 86 86 200 97 97 97 212 212 212 212 172
 172 172 172 172 82 148 148 148 148 59 59 248 248 248 248 86 86 86 86 200
 200 200 107 107 212 212 212 212 15 172 172 172 82 82 82 82 59 59 59 59
 248 248 248 248 248 86 86 86 168 200 200 107 107 107 212 212 15 15 15 15
 82 82 82 82 82 82 59 59 59 248 248 248 248 248 248 86 200 168 168 168
 107 107 107 212 212 15 15 15 15 15 82 82 82 82 82 59 59 59 248 248
 248 248 248 248 168 168 168 168 168 107 107 107 212 15 15 15 15 15 15 82
 82 82 82 82 59 59 59 248 248 248 248 248 194 168 168 168 168 168 107 107
 107 107 15 15 15 15 15 82 82 82 82 82 82 33 33 43 43 248 248 194
 194 194 194 168 168 168 168 107 107 107 158 15 15 15 15 15 204 204 204 204
 204 204 33 43 43 43 43 194 194 194 194 194 194 120 120 120 120 107 107 211
 211 211 211 211 211 230 204 204 204 204 204 33 33 43 43 108 108 194 194 194
 194 19 19 120 120 120 36 36 211 211 211 211 211 211 230 230 204 204 204 204
 33 33 33 108 108 108 108 194 194 19 19 19 19 120 36 36 36 36 211 211
 211 211 211 230 230 230 204 204 204 33 33 108 108 108 108 108 19 19 19 19
 19 19 36 36 36 36 36 211 211 211 211 211 230 230 230 230 204 204 33 33
 108 108 108 108 108 45 19 19 19 19 19 249 249 249 249 249 249 211 211 211
 211 230 230 219 219 219 219 219 219 98 98 108 108 45 45 45 19 19 46 46
 249 249 249 249 249 249 249 211 211 78 219 219 219 219 219 219 219 219 98 98
 45 45 45 45 45 45 19 46 46 46 249 249 249 249 249 249 78 78 78 78
 219 219 219 219 219 219 11 11 11 38 45 70 70 70 70 46 46 46 46 249
 249 249 249 249 78 78 78 78 216 219 219 219 219 171 171 11 11 11 70 70
 70 70 70 70 46 46 46 46 46 30 30 249 249 78 78 78 78 216 216 219
 219 171 171 171 11 11 11 11 70 70 70 70 53 46 46 46 46 30 30 30
 30 30 68 68 78 78 216 216 216 171 171 171 171 11 11 11 11 70 70 70
 53 53 53 53 46 46 30 30 30 30 30 68 68 68 68 68 111 111 111 111
 171 11 11 11 11 11 70 70 53 53 53 53 53 46 30 30 30 30 30 30
 68 68 68 68 68 111 111 111 111 111 11 11 11 11 11 11 70 53 53 53
 53 53 46 30 30 30 30 30 117 117 117 68 26 26 111 111 111 111 111 11
 11 11 11 11 11 100 53 53 53 53 53 224 224 30 30 30 117 117 117 117
 26 26 26 111 111 111 111 111 75 75 75 75 221 100 100 100 100 140 140 224
 224 224 224 224 224 117 117 117 26 26 26 26 111 111 111 111 75 75 75 75
 221 221 100 100 100 100 100 140 224 224 224 224 224 224 224 117 117 88 26 26
 88 88 111 159 159 75 75 75 75 221 221 100 100 100 100 100 140 224 224 224
 224 224 224 224 117 88 88 88 88 88 88 88 159 160 75 75 75 75 221 221
 100 100 100 100 113 113 113 224 224 224 224 224 224 224 88 88 88 88 88 88
 88 159 160 160 75 75 221 221 221 221 100 100 113 113 113 113 224 224 224 224
 224 119 119 88 88 88 88 88 88 106 148 148 148 160 160 221 221 221 221 64
 113 113 113 113 113 113 224 77 224 119 119 172 172 172 172 172 172 172 172 148
 148 148 148 148 221 221 221 64 64 113 113 113 113 86 251 251 97 97 212 212
 212 172 172 172 172 172 172 172 148 148 148 148 148 148 221 248 248 64 113 113
 113 113 86 251 251 97 212 212 212 212 172 172 172 172 172 172 172 148 148 148
 148 148 148 248 248 248 248 86 86 86 86 86 200 251 212 212 212 212 212 212
 172 172 172 172 172 10 148 148 148 148 148 148 248 248 248 248 248 183 183 183
 168 200 168 212 212 212 212 212 212 212 172 172 172 82 82 82 148 148 59 59
 59 248 248 248 248 248 248 183 183 168 168 168 168 212 212 212 212 15 15 15
 15 82 82 82 82 82 82 59 59 43 248 248 248 248 248 248 168 168 168 168
 168 168 212 212 212 212 15 15 15 15 15 82 82 82 82 82 59 43 43 43
 248 248 248 248 248 168 168 168 168 168 168 107 212 212 15 15 15 15 15 15
 82 82 82 82 82 82 43 43 43 43 248 248 248 194 168 168 168 168 168 168
 107 107 212 15 15 15 15 15 15 82 82 82 82 82 33 43 43 43 43 43
 194 194 194 194 168 120 120 120 120 170 158 158 158 15 15 15 174 174 204 204
 204 204 204 43 43 43 43 43 194 194 194 194 194 120 120 120 120 120 120 158
 158 158 211 211 174 174 174 230 204 204 204 204 33 43 43 43 108 194 194 194
 194 194 120 120 120 120 120 120 249 211 211 211 211 211 174 230 230 230 204 204
 204 33 43 43 108 108 108 194 194 194 19 19 120 120 120 120 249 249 249 211
 211 211 211 230 230 230 230 230 204 204 33 108 108 108 108 108 108 194 194 19
 19 19 120 120 249 249 249 249 211 211 211 211 230 230 230 230 230 230 230 33
 108 108 108 108 108 108 108 19 19 19 19 249 249 249 249 249 249 249 211 211
 211 230 230 230 219 219 219 219 219 98 98 98 98 98 98 98 45 19 19 46
 249 249 249 249 249 249 249 249 211 78 78 230 219 219 219 219 219 219 219 98
 98 98 98 98 98 45 45 19 46 46 249 249 249 249 249 249 249 78 78 78
 216 219 219 219 219 219 219 11 11 38 38 38 70 70 70 70 46 46 46 46
 249 249 249 249 249 78 78 78 78 216 216 219 219 219 219 171 11 11 11 137
 137 70 70 70 70 46 46 46 46 249 249 249 249 249 157 78 78 78 216 216
 216 219 219 171 171 11 11 11 137 137 70 70 70 70 46 46 46 46 30 30
 30 30 30 157 157 78 78 216 216 216 216 171 171 11 11 11 11 11 137 70
 70 70 53 53 53 46 46 30 30 30 30 30 68 68 68 68 216 216 111 111
 111 171 11 11 11 11 11 137 70 70 70 53 53 53 46 30 30 30 30 30
 117 117 117 68 68 216 111 111 111 111 111 11 11 11 11 11 137 70 53 53
 53 53 53 46 30 30 30 30 117 117 117 117 117 26 111 111 111 111 111 111
 11 11 11 11 11 137 70 53 53 53 53 53 224 224 224 30 30 117 117 117
 117 26 26 26 111 111 111 111 111 75 75 75 11 221 100 100 100 100 140 140
 224 224 224 224 224 117 117 117 117 117 88 88 88 111 111 111 111 75 75 75
 75 221 221 100 100 100 100 100 140 224 224 224 224 224 224 117 117 117 88 88
 88 88 88 106 106 106 75 75 75 75 221 221 221 100 100 100 100 140 224 224
 224 224 224 224 224 117 88 88 88 88 88 88 106 106 160 160 75 75 221 221
 221 221 100 100 100 113 113 113 224 224 224 224 119 119 119 88 88 88 88 88
 88 106 106 160 160 160 75 221 221 221 221 100 176 176 113 113 251 224 224 224
 119 119 119 119 88 88 88 88 88 106 106 160 160 160 160 160 221 221 221 221
 176 176 176 113 113 251 251 251 224 119 119 119 119 172 172 172 172 172 106 106
 160 160 160 160 160 160 221 221 176 176 176 176 113 113 251 251 251 251 119 119
 212 212 172 172 172 172 172 172 10 10 148 148 148 148 148 221 221 176 176 176
 176 183 113 251 251 251 251 212 212 212 212 212 172 172 172 172 172 10 10 10
 148 148 148 148 248 248 248 183 183 183 183 183 183 251 251 212 212 212 212 212
 212 241 241 172 172 10 10 10 10 112 112 112 43 248 248 248 248 183 183 183
 183 183 183 168 212 212 212 212 212 212 241 241 241 172 10 10 10 10 112 112
 43 43 43 248 248 248 248 183 183 183 168 168 168 170 212 212 212 212 212 241
 241 241 82 82 82 82 82 112 43 43 43 43 43 248 248 248 183 183 183 168
 168 168 170 170 212 212 212 15 15 15 15 15 82 82 82 82 82 43 43 43
 43 43 43 43 248 248 168 168 168 168 168 170 170 212 212 15 15 15 15 15
 15 82 82 82 82 82 43 43 43 43 43 43 43 43 194 168 168 168 168 170
 170 170 158 158 15 15 15 15 15 15 82 82 82 82 82 43 43 43 43 43
 43 194 194 194 194 168 120 120 120 170 170 158 158 158 158 15 15 174 174 174
 204 204 204 43 43 43 43 43 43 43 194 194 194 194 120 120 120 120 120 170
 158 158 158 158 187 174 174 174 174 204 204 204 204 43 43 43 43 188 188 194
 194 194 194 120 120 120 120 120 120 158 158 187 187 187 187 174 174 230 230 230
 204 199 21 43 43 188 188 188 194 194 194 194 120 120 120 120 120 249 249 187
 187 187 187 187 230 230 230 230 230 230 199 21 21 188 188 188 188 188 194 194
 194 19 120 120 120 249 249 249 249 187 187 187 187 230 230 230 230 230 230 199
 199 21 98 98 98 98 188 188 19 19 19 120 249 249 249 249 249 249 249 187
 187 187 230 230 230 219 219 219 219 219 40 98 98 98 98 98 98 98 19 19
 249 249 249 249 249 249 249 249 249 187 157 216 216 219 219 219 219 219 219 40
 98 98 98 98 98 98 98 98 19 46 249 249 249 249 249 249 249 157 157 157
 216 216 216 219 219 219 219 219 40 38 38 38 38 38 70 70 70 70 46 147
 147 249 249 249 249 249 157 157 157 216 216 216 216 219 219 219 171 11 11 137
 137 137 137 70 70 70 70 46 147 147 147 147 249 249 157 157 157 157 157 216
 216 216 216 219 219 11 11 11 11 137 137 137 70 70 70 70 46 147 147 147
 147 30 30 157 157 157 157 157 216 216 216 216 171 171 11 11 11 11 137 137
 137 70 70 70 53 53 147 147 147 30 30 30 157 157 157 157 216 216 216 216
 111 111 111 11 11 11 11 11 137 137 70 70 70 53 53 147 30 30 30 30
 117 117 117 117 68 216 216 111 111 111 111 111 11 11 11 11 11 137 137 70
 53 53 53 53 231 30 30 30 30 117 117 117 117 117 117 111 111 111 111 111
 111 11 11 11 11 11 182 182 182 182 53 53 231 218 218 218 30 117 117 117
 117 117 117 117 111 111 111 111 111 111 75 75 75 221 221 182 182 182 182 182
 182 218 218 218 218 218 117 117 117 117 117 88 88 88 111 111 111 111 75 75
 75 75 221 221 221 100 100 182 182 182 218 218 218 218 218 218 117 117 117 88
 88 88 88 106 106 106 106 75 75 75 75 221 221 221 100 100 100 100 182 218
 218 218 218 218 119 119 128 88 88 88 88 88 106 106 106 106 160 75 75 221
 221 221 221 176 176 176 176 113 251 218 218 218 119 119 119 119 88 88 88 88
 88 106 106 106 160 160 160 160 221 221 221 221 176 176 176 176 113 251 251 119
 119 119 119 119 119 119 88 88 88 88 106 106 106 160 160 160 160 160 173 221
 176 176 176 176 176 251 251 251 251 119 119 119 119 119 119 172 172 172 106 106
 106 160 160 160 160 160 160 173 221 176 176 176 176 176 251 251 251 251 251 119
 119 119 119 241 241 172 172 172 10 10 10 160 160 160 160 160 173 169 169 176
 176 183 183 251 251 251 251 251 212 212 212 212 241 241 241 172 172 10 10 10
 10 112 112 160 160 43 43 169 183 183 183 183 183 183 251 251 251 212 212 212
 212 241 241 241 241 241 10 10 10 10 112 112 112 43 43 43 43 183 183 183
 183 183 183 251 251 212 212 212 212 212 241 241 241 241 241 10 10 10 10 112
 112 43 43 43 43 43 43 183 183 183 183 183 183 170 170 212 212 212 212 241
 241 241 241 241 10 10 10 10 112 43 43 43 43 43 43 43 43 183 183 183
 168 170 170 170 170 212 212 212 241 241 241 241 241 82 82 82 82 43 43 43
 43 43 43 43 43 43 183 183 183 168 170 170 170 170 170 212 212 15 15 15
 15 15 82 82 82 82 82 43 43 43 43 43 43 43 43 194 194 120 120 120
 170 170 170 158 158 158 15 15 15 15 174 82 82 82 82 82 43 43 43 43
 43 43 194 194 194 194 120 120 120 120 170 170 158 158 158 158 158 174 174 174
 174 174 199 199 21 21 43 43 43 43 43 194 194 194 120 120 120 120 120 120
 170 158 158 158 158 187 174 174 174 174 199 199 199 21 21 21 21 43 188 188
 194 194 194 194 120 120 120 120 120 120 158 158 187 187 187 187 174 174 174 199
 199 199 199 21 21 21 188 188 188 188 188 194 194 120 120 120 120 120 120 249
 187 187 187 187 187 187 174 230 199 199 199 199 21 21 21 188 188 188 188 188
 194 194 120 120 120 120 120 249 249 187 187 187 187 187 187 230 230 13 13 199
 199 199 21 98 98 98 98 98 98 98 98 19 120 120 249 249 249 249 249 249
 187 187 187 187 230 230 13 13 13 13 40 40 98 98 98 98 98 98 98 98
 98 249 249 249 249 249 249 249 249 187 187 187 216 216 216 13 13 13 40 40
 40 40 98 98 98 98 98 98 98 98 147 147 147 147 249 249 249 249 157 157
 157 216 216 216 216 219 219 40 40 40 40 38 38 38 38 38 70 70 70 147
 147 147 147 147 249 249 157 157 157 157 216 216 216 216 216 219 40 40 40 40
 137 137 137 137 137 70 70 70 147 147 147 147 147 147 249 157 157 157 157 157
 216 216 216 216 201 44 44 44 11 137 137 137 137 137 70 70 70 147 147 147
 147 147 147 30 157 157 157 157 157 216 216 216 216 201 44 44 11 11 137 137
 137 137 70 70 70 53 147 147 147 147 147 147 30 157 157 157 157 216 216 216
 216 216 111 11 11 11 11 11 137 137 137 70 70 70 53 147 147 147 147 147
 147 117 117 117 117 157 216 216 166 166 166 111 111 11 11 11 11 11 137 137
 70 182 182 53 231 231 147 147 147 117 117 117 117 117 117 166 166 166 166 166
 111 111 11 11 11 11 11 182 182 182 182 182 182 231 218 218 218 218 117 117
 117 117 117 117 166 166 166 166 166 166 166 75 75 173 173 182 182 182 182 182
 182 182 218 218 218 218 218 218 180 117 117 117 88 88 166 166 166 166 166 166
 75 75 173 173 173 182 182 182 182 182 182 218 218 218 218 218 218 128 128 128
 88 88 88 88 106 106 106 106 160 75 75 173 173 173 173 182 182 182 182 182
 218 218 218 218 218 119 128 128 128 88 88 88 106 106 106 106 106 160 160 75
 173 173 173 173 182 182 182 176 176 218 218 218 218 119 119 119 128 128 88 88
 88 106 106 106 106 160 160 160 160 173 173 173 173 176 176 176 176 176 251 251
 218 119 119 119 119 119 128 88 88 88 106 106 106 106 160 160 160 160 160 173
 173 173 176 176 176 176 251 251 251 251 119 119 119 119 119 119 119 172 106 106
 106 106 160 160 160 160 160 160 173 173 169 169 176 176 63 251 251 251 251 251
 119 119 119 119 241 241 241 106 106 10 10 10 160 160 160 160 160 173 169 169
 169 169 63 63 251 251 251 251 251 244 212 212 212 241 241 241 241 10 10 10
 10 10 112 112 112 112 43 169 169 169 183 183 183 183 183 251 251 251 244 212
 212 212 241 241 241 241 241 10 10 10 10 112 112 112 112 43 43 169 169 183
 183 183 183 183 251 251 251 212 212 212 212 241 241 241 241 241 10 10 10 10
 112 112 112 43 43 43 43 43 183 183 183 183 183 170 170 170 212 212 212 212
 241 241 241 241 241 10 10 10 10 112 112 43 43 43 43 43 43 183 183 183
 183 183 170 170 170 170 212 212 212 197 241 241 241 241 10 10 82 10 112 43
 43 43 43 43 43 43 43 183 183 183 170 170 170 170 170 170 158 158 158 241
 241 241 241 82 82 82 82 43 43 43 43 43 43 43 43 43 194 120 120 120
 120 170 170 170 158 158 158 158 15 15 15 174 82 82 82 82 43 43 43 43
 43 43 43 43 194 194 120 120 120 120 120 120 170 158 158 158 158 158 174 174
 174 174 199 199 199 21 21 21 21 43 43 43 194 194 181 120 120 120 120 120
 120 120 158 158 158 158 187 187 174 174 101 199 199 199 21 21 21 21 21 188
 188 188 188 194 120 120 120 120 120 120 120 158 158 187 187 187 187 174 174 199
 199 199 199 199 21 21 21 188 188 188 188 188 194 120 120 120 120 120 120 120
 158 187 187 187 187 187 187 174 199 199 199 199 199 21 21 21 188 188 188 188
 188 188 120 120 120 120 120 120 120 249 187 187 187 187 187 187 230 13 13 13
 199 199 199 21 21 98 98 98 98 98 98 98 120 120 120 120 249 249 249 249
 187 187 187 187 187 13 13 13 13 13 13 40 40 40 98 98 98 98 98 98
 98 98 147 147 147 249 249 249 249 249 187 187 157 216 216 13 13 13 13 40
 40 40 40 98 98 98 98 98 98 98 98 147 147 147 147 147 249 249 157 157
 157 157 216 216 216 201 201 13 40 40 40 40 40 38 38 38 38 38 38 38
 147 147 147 147 147 147 249 157 157 157 157 216 216 216 201 201 201 40 40 40
 40 137 137 137 137 137 70 70 70 147 147 147 147 147 147 125 157 157 157 157
 216 216 216 201 201 201 44 44 44 44 137 137 137 137 137 70 70 70 147 147
 147 147 147 147 125 157 157 157 157 216 216 216 201 201 201 44 44 44 44 137
 137 137 137 137 70 70 53 147 147 147 147 147 147 125 125 157 157 157 216 216
 216 216 201 201 44 44 44 44 137 137 137 137 137 70 182 182 231 231 147 147
 147 147 125 125 125 157 157 216 166 166 166 166 166 166 44 11 11 11 137 137
 137 182 182 182 182 231 231 218 147 147 147 180 180 180 117 117 166 166 166 166
 166 166 166 166 11 11 11 182 182 182 182 182 182 182 231 218 218 218 218 218
 180 180 180 117 166 166 166 166 166 166 166 166 166 29 173 173 182 182 182 182
 182 182 182 218 218 218 218 218 218 180 180 180 180 166 166 166 166 166 166 166
 166 29 29 173 173 173 182 182 182 182 182 182 218 218 218 218 218 218 128 128
 128 128 88 88 166 166 166 166 106 160 29 29 173 173 173 182 182 182 182 182
 182 218 218 218 218 218 218 128 128 128 128 88 88 106 106 106 106 106 160 160
 160 173 173 173 173 182 182 182 182 182 218 218 218 218 218 119 128 128 128 128
 88 88 106 106 106 106 160 160 160 160 173 173 173 173 169 169 169 176 251 251
 251 218 218 119 119 119 145 145 145 88 106 106 106 106 237 160 160 160 160 160
 173 173 169 169 169 169 63 251 251 251 251 251 119 119 119 145 145 145 145 106
 106 106 237 237 160 160 160 160 160 173 169 169 169 169 63 63 63 251 251 251
 251 244 244 244 244 145 241 241 106 106 237 237 237 160 160 160 160 160 173 169
 169 169 169 63 63 63 251 251 251 251 244 244 244 244 241 241 241 241 10 10
 10 10 10 112 112 160 160 169 169 169 169 169 183 63 63 183 251 251 244 244
 244 244 212 241 241 241 241 241 10 10 10 10 112 112 112 43 43 169 169 169
 169 183 183 183 183 251 251 244 244 244 212 212 241 241 241 241 241 10 10 10
 10 112 112 43 43 43 43 43 169 169 183 183 183 183 170 170 170 170 212 212
 212 197 241 241 241 139 139 10 10 10 112 43 43 43 43 43 43 43 169 183
 183 183 183 170 170 170 170 212 212 197 197 197 241 241 241 139 10 10 10 43
 43 43 43 43 43 43 43 43 183 183 183 170 170 170 170 170 170 158 158 197
 197 241 241 241 139 139 139 199 43 43 43 43 43 43 43 43 43 43 181 120
 120 120 170 170 170 158 158 158 158 158 15 15 101 101 101 199 199 21 21 43
 43 43 43 43 43 43 181 181 120 120 120 120 120 123 158 158 158 158 158 101
 101 101 101 101 199 199 21 21 21 21 21 43 43 181 181 181 181 181 120 120
 120 120 120 158 158 158 158 187 101 101 101 101 199 199 199 199 21 21 21 21
 188 188 188 181 181 181 181 120 120 120 120 120 158 158 158 187 187 187 101 101
 101 199 199 199 199 21 21 21 21 188 188 188 188 181 181 181 120 120 120 120
 120 207 187 187 187 187 187 101 101 199 199 199 199 199 21 21 21 188 188 188
 188 188 181 181 181 120 120 120 120 207 207 207 187 187 187 187 187 101 13 13
 13 199 199 199 21 21 98 188 188 188 188 188 181 181 120 120 120 207 207 207
 207 207 51 51 51 51 13 13 13 13 13 13 40 40 40 98 98 98 98 98
 98 98 55 147 147 147 207 207 207 207 207 51 51 51 243 216 13 13 13 13
 40 40 40 40 40 98 98 98 98 98 98 55 147 147 147 147 207 207 207 207
 157 157 157 216 216 216 201 13 13 40 40 40 40 40 38 38 38 38 38 38
 38 147 147 147 147 147 207 207 157 157 157 157 216 216 201 201 201 201 40 40
 44 44 40 137 137 137 137 137 137 18 147 147 147 147 147 147 125 125 157 157
 157 216 216 201 201 201 201 44 44 44 44 44 137 137 137 137 137 137 137 147
 147 147 147 147 147 125 125 125 157 157 216 216 201 201 201 201 44 44 44 44