# vtk DataFile Version 2.0
Data set from ImportExport Version 6.5.171.b0b162591
ASCII

DATASET RECTILINEAR_GRID
DIMENSIONS 30 30 30
X_COORDINATES 30 float
-1.250000 1.250000 3.750000 6.250000 8.750000 11.250000 13.750000 16.250000 18.750000 21.250000 23.750000 26.250000 28.750000 31.250000 33.750000 36.250000 38.750000 41.250000 43.750000 46.250000 48.750000 
51.250000 53.750000 56.250000 58.750000 61.250000 63.750000 66.250000 68.750000 71.250000 
Y_COORDINATES 30 float
-1.250000 1.250000 3.750000 6.250000 8.750000 11.250000 13.750000 16.250000 18.750000 21.250000 23.750000 26.250000 28.750000 31.250000 33.750000 36.250000 38.750000 41.250000 43.750000 46.250000 48.750000 
51.250000 53.750000 56.250000 58.750000 61.250000 63.750000 66.250000 68.750000 71.250000 
Z_COORDINATES 30 float
-1.250000 1.250000 3.750000 6.250000 8.750000 11.250000 13.750000 16.250000 18.750000 21.250000 23.750000 26.250000 28.750000 31.250000 33.750000 36.250000 38.750000 41.250000 43.750000 46.250000 48.750000 
51.250000 53.750000 56.250000 58.750000 61.250000 63.750000 66.250000 68.750000 71.250000 
CELL_DATA 24389
SCALARS FeatureIds int 1
LOOKUP_TABLE default
 143 143 143 143 143 143 143 143 98 98 98 98 98 98 109 109 137 137 137 137
 204 204 204 100 100 100 100 100 143 143 143 143 143 143 143 143 145 145 98 98
 98 98 109 109 137 137 137 137 137 137 185 185 185 100 100 100 100 100 143 143
 143 143 143 143 143 182 145 35 35 35 35 137 137 137 137 137 137 137 185 185
 185 185 100 100 100 100 143 143 143 143 143 143 143 182 182 182 35 35 35 35
 175 175 175 175 175 175 152 152 210 210 210 210 100 100 100 143 143 143 143 143
 143 54 182 182 182 35 35 35 35 175 175 175 175 175 175 152 152 210 210 210
 210 210 100 100 143 179 179 179 179 54 54 54 182 182 35 35 35 35 175 175
 175 175 175 152 152 152 210 210 210 210 210 210 179 179 179 179 179 179 54 54
 54 54 182 35 35 35 35 175 175 175 175 175 152 152 152 152 210 210 210 210
 179 179 179 179 179 179 179 54 54 54 54 1 1 1 35 1 175 175 175 175
 40 152 152 152 152 110 110 110 110 179 179 179 179 179 179 179 54 54 54 54
 54 1 1 1 1 1 175 175 175 40 152 152 152 152 110 110 110 110 179 179
 179 179 179 179 172 172 54 54 54 223 223 1 1 1 1 1 175 175 40 152
 152 152 152 110 110 110 15 15 179 179 179 179 172 172 172 54 54 223 223 223
 223 1 1 1 1 34 34 34 207 207 207 207 110 15 15 15 15 81 81 179
 179 172 172 172 172 176 176 223 223 223 176 176 176 29 34 34 34 34 207 207
 207 207 15 15 15 15 15 81 235 235 235 64 64 64 176 176 176 176 176 176
 176 29 29 29 34 34 34 34 34 34 34 15 15 15 15 15 15 235 235 235
 64 64 64 176 176 176 176 176 176 176 29 29 29 29 34 34 34 34 50 50
 15 15 15 15 15 235 235 235 235 64 64 64 176 176 176 176 176 176 29 29
 29 29 29 29 34 34 50 50 50 50 15 15 15 15 235 235 235 235 64 64
 64 75 176 176 176 176 176 29 29 29 29 29 29 34 85 50 50 50 85 85
 15 15 235 235 235 235 235 64 64 75 75 75 176 176 176 176 29 29 29 29
 29 29 85 85 85 85 85 85 85 85 235 235 235 235 235 235 64 75 75 75
 75 176 176 176 114 114 114 29 29 29 29 85 85 85 85 85 85 85 85 235
 235 235 60 60 60 75 75 75 75 75 75 193 114 114 114 114 114 47 47 47
 47 85 85 85 85 85 85 85 85 60 60 60 60 190 60 75 75 75 75 193
 193 193 193 114 114 114 47 47 47 209 209 85 85 85 85 85 111 111 60 60
 60 190 190 60 75 75 75 237 193 193 193 193 212 114 114 47 47 209 209 209
 209 85 85 85 111 111 111 111 111 60 190 190 60 237 237 237 237 237 212 212
 212 212 193 151 151 209 209 209 209 209 209 85 111 111 111 111 111 111 60 190
 190 237 237 237 237 237 237 212 212 193 193 193 151 151 151 209 209 209 209 209
 12 111 111 111 111 111 111 130 190 138 138 138 138 237 237 237 237 193 193 193
 151 151 151 151 151 209 209 12 12 12 12 111 111 111 111 111 130 130 138 138
 138 138 138 237 237 237 193 193 193 151 151 151 151 151 209 12 12 12 12 12
 111 111 130 130 130 130 130 138 138 138 138 138 237 237 237 98 98 98 155 155
 155 155 155 155 12 12 12 12 12 12 130 130 130 130 130 143 138 138 138 138
 138 138 237 98 98 98 98 98 155 155 155 155 155 12 12 12 12 12 12 130
 130 130 130 143 143 143 143 138 138 138 138 98 98 98 98 98 98 216 216 216
 216 216 12 12 12 12 12 12 130 130 130 143 143 143 143 143 143 138 138 138
 98 98 98 98 98 98 216 216 216 216 216 12 12 12 12 12 100 100 100 100
 143 143 143 143 143 143 143 143 145 145 98 98 98 98 98 109 109 137 137 78
 78 204 204 204 204 100 100 100 100 100 143 143 143 143 143 143 143 145 145 98
 98 98 98 98 109 137 137 137 137 137 173 185 185 185 185 100 100 100 100 143
 143 143 143 143 143 145 145 145 206 35 35 35 175 137 137 137 137 137 185 185
 185 185 185 185 100 100 100 100 143 143 143 143 143 143 145 145 145 35 35 35
 35 175 175 175 175 175 175 152 185 185 185 185 7 7 100 100 100 179 179 179
 143 179 54 182 182 35 35 35 35 35 175 175 175 175 175 175 152 210 210 210
 210 210 7 7 179 179 179 179 179 179 179 54 54 182 182 35 35 35 35 175
 175 175 175 175 152 152 152 210 210 210 210 210 7 179 179 179 179 179 179 179
 54 54 54 1 1 35 35 35 175 175 175 175 175 152 152 152 152 210 210 210
 210 210 179 179 179 179 179 179 179 54 54 54 1 1 1 1 1 1 175 175
 175 152 152 152 152 152 196 196 196 196 179 179 179 179 179 179 172 172 54 54
 54 1 1 1 1 1 1 1 175 175 152 152 152 152 152 196 196 196 196 179
 179 179 179 179 172 172 172 172 54 54 1 1 1 1 1 1 1 175 175 152
 152 152 152 152 196 196 15 81 81 81 179 179 179 172 172 172 172 54 176 176
 176 176 1 1 1 1 34 34 34 14 14 14 14 14 15 15 15 81 81 81
 81 179 172 172 172 172 176 176 176 176 176 176 176 129 29 34 34 34 34 14
 14 14 14 15 15 15 15 81 81 235 235 235 64 64 64 176 176 176 176 176
 176 176 29 29 29 34 34 34 34 34 14 14 15 15 15 15 15 81 235 235
 235 64 64 64 176 176 176 176 176 176 176 29 29 29 29 34 34 34 34 50
 50 15 15 15 15 15 235 235 235 235 64 64 64 64 176 176 176 176 176 29
 29 29 29 29 34 34 34 50 50 50 50 15 15 15 15 235 235 235 235 64
 64 64 64 176 176 176 176 176 29 29 29 29 29 29 34 50 50 50 50 50
 50 15 15 235 235 235 235 235 64 64 64 64 176 176 176 176 176 29 29 29
 29 29 29 85 85 85 85 85 85 85 85 235 235 235 235 235 235 64 64 64
 75 75 176 176 176 114 114 114 29 29 29 29 85 85 85 85 85 85 85 85
 235 235 235 60 60 60 64 75 75 75 75 75 193 114 114 114 114 114 29 29
 209 209 85 85 85 85 85 85 85 85 60 60 60 60 60 60 75 75 75 75
 193 193 193 193 114 114 114 114 209 209 209 209 85 85 85 85 85 111 111 60
 60 60 60 60 60 60 237 237 237 193 193 193 193 212 114 114 114 209 209 209
 209 209 85 85 85 111 111 111 111 60 60 60 60 60 237 237 237 237 237 193
 193 193 193 193 151 151 209 209 209 209 209 209 85 111 111 111 111 111 243 60
 60 60 60 237 237 237 237 237 212 212 193 193 193 151 151 151 209 209 209 209
 209 12 111 111 111 111 111 243 159 241 241 241 138 237 237 237 237 237 193 193
 193 151 151 151 151 151 209 209 209 12 12 12 111 111 111 159 159 130 241 241
 241 138 138 237 237 237 237 193 193 193 151 151 151 151 151 209 12 12 12 12
 12 111 111 130 130 130 130 241 241 241 138 138 138 237 237 136 98 98 98 151
 151 151 151 151 12 12 12 12 12 12 12 130 130 130 130 130 241 241 241 138
 138 138 138 237 98 98 98 98 98 155 155 155 155 155 12 12 12 12 12 12
 130 130 130 130 143 143 143 241 138 138 138 138 98 98 98 98 98 98 216 216
 216 216 216 12 12 12 12 204 204 130 130 130 143 143 143 143 143 143 138 138
 138 98 98 98 98 98 98 216 216 216 216 216 204 204 204 204 204 204 100 100
 100 100 143 143 143 143 143 143 145 145 145 98 98 98 98 98 109 109 78 78
 78 78 204 204 204 204 100 100 100 100 100 100 143 143 143 143 143 145 145 145
 206 206 98 98 98 109 137 137 78 78 173 173 185 185 185 185 100 100 100 100
 143 143 143 143 143 145 145 145 145 206 206 206 35 175 175 175 175 175 175 185
 185 185 185 185 185 7 100 100 100 143 143 143 143 143 145 145 145 145 206 206
 35 35 175 175 175 175 175 175 185 185 185 185 185 7 7 7 100 100 179 179
 179 179 179 145 145 145 206 206 35 35 35 175 175 175 175 175 175 152 185 185
 185 185 7 7 7 7 179 179 179 179 179 179 54 145 145 1 1 35 35 35
 175 175 175 175 175 152 152 152 210 210 210 210 7 7 179 179 179 179 179 179
 179 54 54 1 1 1 1 1 1 1 175 175 175 175 152 152 152 152 210 196
 196 196 7 179 179 179 179 179 179 179 54 54 1 1 1 1 1 1 1 175
 175 175 152 152 152 152 152 196 196 196 196 196 179 179 179 106 106 172 172 54
 54 1 1 1 1 1 1 1 1 175 175 152 152 152 152 152 196 196 196 196
 179 179 179 179 179 172 172 172 172 54 1 1 1 1 1 1 1 1 184 184
 14 14 14 14 14 196 196 196 81 81 81 81 81 179 172 172 172 172 176 176
 176 176 129 129 129 129 129 14 14 14 14 14 14 14 196 196 15 81 81 81
 81 81 81 172 172 172 172 176 176 176 176 129 129 129 129 129 34 34 34 14
 14 14 14 14 15 15 81 81 81 81 81 235 235 64 64 64 176 176 176 176
 176 129 129 129 29 29 34 34 34 14 14 14 14 15 15 15 81 81 81 235
 235 235 64 64 64 176 176 176 176 176 176 176 29 29 29 29 34 34 34 34
 50 50 15 15 15 81 81 81 235 235 235 64 64 64 64 176 176 176 176 176
 29 29 29 29 29 34 34 34 50 50 50 50 15 15 81 235 235 235 235 235
 64 64 64 64 176 176 176 176 176 29 29 29 29 29 29 34 34 50 50 50
 85 85 15 81 235 235 235 235 235 64 64 64 64 176 176 176 176 176 29 29
 29 29 29 29 85 85 85 85 85 85 85 85 235 235 235 235 235 235 64 64
 64 75 75 176 176 176 114 114 114 29 29 29 29 85 85 85 85 85 85 85
 85 235 235 235 190 190 60 64 64 75 75 221 221 221 193 114 114 114 114 29
 29 209 209 85 85 85 85 85 85 85 243 243 60 190 60 60 60 60 75 75
 221 221 193 193 193 114 114 114 114 209 209 209 209 85 85 85 85 85 243 243
 243 243 60 60 60 60 60 237 237 237 193 193 193 193 212 114 114 114 209 209
 209 209 209 209 85 85 243 243 243 243 243 243 60 60 60 237 237 237 237 237
 193 212 212 212 212 114 151 209 209 209 209 209 209 85 85 111 243 243 243 243
 243 60 60 241 237 237 237 237 237 212 212 193 193 193 151 151 151 209 209 209
 209 209 85 111 111 243 243 243 243 159 241 241 241 241 237 237 237 237 237 193
 193 193 151 151 151 151 151 209 209 209 209 12 159 159 159 159 159 159 159 241
 241 241 241 138 237 237 237 136 136 193 193 151 151 151 151 151 209 209 12 12
 12 12 159 159 159 159 159 241 241 241 241 241 138 138 237 136 136 136 98 98
 151 151 151 151 151 78 12 204 204 204 12 130 130 130 130 130 241 241 241 241
 241 138 138 138 136 136 98 98 98 98 151 151 151 78 78 204 204 204 204 204
 204 130 130 130 130 143 241 241 241 241 138 138 138 136 98 98 98 98 98 98
 78 78 78 78 204 204 204 204 204 204 130 130 130 143 143 143 143 143 143 138
 138 138 98 98 98 98 98 98 98 78 78 78 78 204 204 204 204 204 204 100
 100 100 100 143 143 143 143 143 145 145 145 145 206 206 98 98 98 78 78 78
 78 78 78 204 204 204 204 204 100 100 100 100 100 143 143 143 143 145 145 145
 145 206 206 206 206 206 175 175 78 78 78 173 173 173 185 185 7 7 100 100
 100 143 143 143 143 145 145 145 145 145 206 206 206 206 206 175 175 175 78 144
 144 144 185 185 185 7 7 7 7 100 106 143 143 143 145 145 145 145 145 206
 206 206 206 175 175 175 175 175 175 144 144 185 185 185 7 7 7 7 100 106
 106 106 106 145 145 145 145 206 206 206 1 1 175 175 175 175 175 175 152 185
 185 185 185 7 7 7 7 179 106 106 106 106 106 145 145 145 206 1 1 1
 1 1 175 175 175 175 152 152 152 185 185 185 7 7 7 7 106 106 106 106
 106 106 106 145 145 1 1 1 1 1 1 175 175 175 175 152 152 152 149 196
 196 196 196 7 106 106 106 106 106 106 106 106 54 1 1 1 1 1 1 1
 181 175 175 184 152 152 152 196 196 196 196 196 196 106 106 106 106 106 106 106
 106 148 148 148 1 1 1 1 1 181 184 184 184 184 152 152 149 196 196 196
 196 81 81 106 106 106 106 106 106 106 148 148 148 1 1 1 1 1 1 184
 184 184 184 14 14 14 149 196 196 81 81 81 81 81 106 106 106 172 172 63
 63 63 63 129 129 129 1 1 184 184 14 14 14 14 14 149 196 81 81 81
 81 81 81 81 106 106 172 172 176 176 63 63 129 129 129 129 129 184 184 14
 14 14 14 14 14 81 81 81 81 81 81 81 81 235 64 64 64 176 176 176
 176 129 129 129 129 129 29 34 14 14 14 14 14 14 81 81 81 81 81 81
 235 235 235 64 64 64 176 176 176 176 176 176 176 29 29 29 29 34 34 14
 14 14 14 81 81 81 81 81 81 235 235 113 113 113 64 64 176 176 176 176
 176 176 29 29 29 29 34 34 34 34 50 50 85 81 81 81 81 235 235 235
 113 113 113 64 64 176 176 176 176 176 29 29 29 29 29 29 34 34 85 85
 85 85 85 81 81 235 235 235 235 113 113 113 64 64 176 176 176 176 176 29
 29 29 29 29 29 85 85 85 85 85 85 85 85 235 235 235 235 235 235 64
 64 64 64 221 221 221 221 221 114 29 29 29 29 29 85 85 85 85 85 85
 85 85 243 243 235 190 60 60 64 64 64 221 221 221 221 221 221 114 114 114
 29 209 209 209 85 85 85 85 85 85 243 243 243 243 60 60 60 60 60 169
 221 221 221 221 221 221 114 114 114 114 209 209 209 209 85 85 85 85 85 243
 243 243 243 243 60 60 60 60 169 237 221 221 221 193 212 212 114 114 114 209
 209 209 209 209 209 85 85 243 243 243 243 243 243 60 60 60 241 237 237 237
 237 221 212 212 212 212 114 151 209 209 209 209 209 209 85 85 243 243 243 243
 243 243 243 241 241 241 237 237 237 237 212 212 212 212 212 151 151 151 209 209
 209 209 209 209 243 243 243 243 243 243 159 241 241 241 241 241 237 237 237 136
 136 193 193 151 151 151 151 151 209 209 209 209 204 159 159 159 159 159 159 159
 241 241 241 241 241 237 237 136 136 136 136 193 151 151 151 151 151 209 209 204
 204 204 204 159 159 159 159 159 241 241 241 241 241 241 138 232 136 136 136 98
 98 151 151 151 78 78 78 78 204 204 204 204 204 159 159 159 159 241 241 241
 241 241 241 138 232 136 136 136 98 98 98 151 78 78 78 78 78 204 204 204
 204 204 240 240 240 240 241 241 241 241 241 138 138 232 136 136 98 98 98 98
 98 78 78 78 78 78 204 204 204 204 204 240 240 240 240 143 143 143 143 241
 138 138 232 136 98 98 98 98 98 98 78 78 78 78 78 204 204 204 204 204
 240 240 240 240 143 143 143 143 70 70 145 145 145 206 206 206 206 206 78 78
 78 78 78 78 144 144 204 204 204 240 240 240 240 100 143 143 143 145 145 145
 145 145 206 206 206 206 206 206 78 78 78 78 173 173 173 173 185 7 7 7
 7 100 143 143 143 143 145 145 145 145 145 206 206 206 206 206 206 175 78 78
 144 144 144 144 185 185 7 7 7 7 100 106 106 106 145 145 145 145 145 145
 206 206 206 206 206 175 175 175 104 144 144 144 144 185 185 7 7 7 7 7
 106 106 106 106 145 145 145 145 206 206 206 206 1 1 175 175 175 104 104 144
 144 185 185 185 7 7 7 7 7 106 106 106 106 106 145 145 145 206 206 1
 1 1 1 175 104 104 104 104 160 160 160 149 149 149 7 7 7 106 106 106
 106 106 106 145 145 145 1 1 1 1 1 181 181 104 104 104 152 160 160 160
 149 149 149 149 7 106 106 106 106 106 106 106 106 148 148 148 148 1 1 181
 181 181 184 184 184 184 184 160 160 149 149 149 149 149 106 106 106 106 106 106
 106 106 148 148 148 148 1 1 181 181 181 184 184 184 184 184 160 149 149 149
 149 149 81 81 106 106 106 106 106 106 106 148 148 148 148 1 1 1 181 181
 184 184 184 184 14 14 149 149 149 149 81 81 81 81 81 106 106 106 106 63
 63 63 63 63 63 129 129 1 181 184 184 184 184 14 14 14 149 149 149 81
 81 81 81 81 81 106 106 106 63 63 63 63 63 63 129 129 129 129 184 184
 14 14 14 14 14 149 149 81 81 81 81 81 81 81 235 64 64 63 63 63
 63 63 63 129 129 129 129 184 184 14 14 14 14 14 14 81 81 81 81 81
 81 235 235 235 64 64 64 63 63 63 63 63 63 129 29 29 29 29 14 14
 14 14 14 14 81 81 81 81 81 81 235 235 113 113 113 113 113 176 176 176
 176 176 176 29 29 29 29 132 34 34 34 50 50 85 81 81 81 81 81 235
 235 113 113 113 113 113 176 176 176 176 176 29 29 29 29 29 132 132 132 220
 220 220 85 85 217 81 81 235 235 235 113 113 113 113 113 221 221 221 221 221
 222 29 29 29 29 132 132 220 220 220 220 220 220 217 217 217 235 235 235 113
 113 113 113 221 221 221 221 221 221 92 92 29 29 29 132 220 220 220 220 220
 220 220 220 243 243 235 190 60 60 113 113 221 221 221 221 221 221 221 92 92
 92 92 209 209 209 220 220 220 220 220 220 243 243 243 243 243 60 60 60 169
 169 221 221 221 221 221 221 92 92 92 92 209 209 209 209 220 220 220 85 243
 243 243 243 243 243 60 60 60 169 169 221 221 221 221 221 221 92 92 92 92
 209 209 209 209 209 220 220 85 243 243 214 214 243 243 243 60 169 169 169 194
 221 221 221 221 212 212 92 92 92 209 209 209 209 209 209 209 214 214 214 214
 214 214 243 243 241 241 241 169 237 237 237 221 212 212 212 92 151 151 151 209
 209 209 209 209 204 159 159 159 159 214 214 159 241 241 241 241 241 232 232 232
 136 136 136 193 151 151 151 151 151 209 209 204 204 204 204 159 159 159 159 159
 159 241 241 241 241 241 232 232 232 136 136 136 136 151 151 151 151 78 78 204
 204 204 204 204 159 159 159 159 159 241 241 241 241 241 241 232 232 232 136 136
 136 98 151 151 78 78 78 78 78 204 204 204 204 204 159 159 159 159 240 241
 241 241 241 241 232 232 232 136 136 98 98 98 78 78 78 78 78 78 204 204
 204 204 204 240 240 240 240 240 241 241 241 241 70 232 232 232 136 136 98 98
 98 78 78 78 78 78 78 204 204 204 204 204 240 240 240 240 240 240 241 241
 241 70 232 232 232 136 136 98 98 98 78 78 78 78 78 78 204 204 204 204
 204 240 240 240 240 143 143 70 70 70 70 145 145 145 206 206 206 206 206 78
 78 78 78 78 78 144 144 144 204 204 240 240 240 240 121 121 121 145 145 145
 145 145 145 206 206 206 206 206 206 78 78 78 78 173 173 144 173 173 7 7
 7 240 240 121 121 121 145 145 145 145 145 145 206 206 206 206 206 206 104 78
 78 78 144 144 144 144 185 7 7 7 7 100 121 121 121 121 145 145 145 145
 145 206 206 206 206 206 104 104 104 104 144 144 144 144 185 185 7 7 7 7
 7 121 121 121 121 145 145 145 145 206 206 206 206 206 206 104 104 104 104 104
 144 144 185 185 185 7 7 7 7 106 106 121 121 106 229 145 145 145 206 206
 206 1 1 1 104 104 104 104 104 160 160 160 149 149 149 149 7 106 106 106
 106 106 106 106 145 145 145 206 1 1 1 1 181 104 104 104 104 116 160 160
 160 149 149 149 149 149 106 106 106 106 106 106 106 106 148 148 148 148 1 1
 181 181 181 104 104 116 116 160 160 160 149 149 149 149 149 106 106 106 106 106
 106 106 106 148 148 148 148 148 1 181 181 181 184 184 184 184 184 160 160 149
 149 149 149 149 81 106 106 106 106 106 106 148 148 148 148 148 148 1 1 181
 181 184 184 184 184 184 14 149 149 149 149 149 81 81 81 81 106 106 106 106
 63 63 63 63 63 63 63 129 181 184 184 184 184 184 14 14 14 149 149 149
 81 81 81 81 81 81 106 106 63 63 63 63 63 63 63 63 129 129 184 184
 184 184 184 14 14 14 149 149 81 81 81 81 81 81 81 81 113 113 63 63
 63 63 63 63 63 129 129 129 184 184 14 14 14 14 14 14 149 81 81 81
 81 81 81 81 113 113 113 63 63 63 63 63 63 63 63 63 29 132 132 132
 132 14 14 14 220 16 81 81 81 115 115 217 235 113 113 113 113 171 63 63
 63 49 49 49 222 222 132 132 132 132 132 132 220 220 220 217 217 217 217 217
 217 235 113 113 113 113 113 49 49 49 49 49 222 222 222 132 132 132 132 132
 220 220 220 220 217 217 217 217 217 217 235 113 113 113 113 113 221 221 49 49
 222 222 222 222 222 132 132 132 220 220 220 220 220 220 217 217 217 217 217 235
 113 113 113 113 221 221 221 221 221 222 222 222 222 222 132 132 132 220 220 220
 220 220 220 217 217 217 217 190 60 51 51 51 169 221 221 221 221 221 221 92
 92 92 92 132 132 132 220 220 220 220 220 220 214 214 243 214 243 51 51 51
 169 169 221 221 221 221 221 221 92 92 92 92 92 23 209 220 220 220 220 220
 214 214 214 214 214 214 214 51 51 169 169 169 221 221 221 221 221 92 92 92
 92 92 209 209 209 209 220 220 220 214 214 214 214 214 214 214 169 169 169 169
 194 194 221 221 221 221 44 44 44 44 209 209 209 209 209 118 118 214 214 214
 214 214 214 214 214 241 241 169 169 194 194 194 168 221 44 44 44 44 44 44
 209 209 209 118 118 118 214 214 214 214 214 214 214 214 241 241 241 232 232 232
 232 168 168 168 44 44 44 44 151 78 78 204 204 204 204 147 147 214 214 214
 214 159 241 241 241 241 232 232 232 232 168 168 168 168 44 44 78 78 78 78
 204 204 204 204 147 147 159 159 159 159 241 241 241 241 241 232 232 232 232 136
 136 136 98 78 78 78 78 78 78 204 204 204 204 147 147 240 240 240 240 240
 241 241 241 70 70 232 232 232 232 136 98 98 78 78 78 78 78 78 78 204
 204 204 204 204 240 240 240 240 240 241 241 70 70 70 70 232 232 232 136 98
 98 78 78 78 78 78 78 78 204 204 204 204 204 240 240 240 240 240 240 241
 70 70 70 70 70 232 232 136 98 98 78 78 78 78 78 78 78 204 204 204
 204 204 240 240 240 240 121 70 70 70 70 70 70 145 206 206 206 206 206 206
 78 78 78 78 78 78 173 144 144 204 204 240 240 240 240 121 121 121 70 70
 70 145 145 206 206 206 206 206 206 206 78 78 78 78 173 173 173 173 173 173
 240 240 240 240 121 121 121 121 145 145 145 145 206 206 206 206 206 206 104 104
 104 78 144 144 144 144 144 173 7 7 7 7 240 121 121 121 121 145 145 145
 145 206 206 206 206 206 206 104 104 104 104 144 144 144 144 144 185 7 7 7
 7 121 121 121 121 121 229 145 145 145 206 206 206 206 206 104 104 104 104 104
 104 144 144 144 149 149 149 149 7 121 121 121 121 121 121 229 229 145 206 206
 206 206 206 1 104 104 104 104 104 104 160 160 160 149 149 149 149 149 121 121
 121 121 121 229 229 229 145 206 206 206 1 1 1 104 104 104 104 116 116 160
 160 160 149 149 149 149 149 121 121 121 121 121 229 229 229 148 148 148 148 148
 1 181 181 104 104 116 116 116 116 160 160 149 149 149 149 149 106 106 106 106
 106 229 229 229 148 148 148 148 148 1 1 181 181 184 184 116 116 116 160 160
 149 149 149 149 149 81 106 106 106 106 106 229 148 148 148 148 148 148 1 1
 181 184 184 184 184 184 184 160 149 149 149 149 149 81 81 81 81 53 53 53
 53 63 63 63 63 63 63 63 63 239 184 184 184 184 184 184 14 149 149 149
 149 149 81 81 81 81 53 53 53 53 63 63 63 63 63 63 63 63 239 184
 184 184 184 184 184 14 14 149 149 149 81 81 81 81 115 115 53 53 53 63
 63 63 63 63 63 63 63 63 184 184 184 132 14 14 14 14 16 16 115 115
 115 115 115 115 115 53 113 113 63 63 63 63 63 49 49 49 49 132 132 132
 132 132 132 132 16 16 16 115 115 115 115 115 217 217 113 113 113 171 171 49
 49 49 49 49 49 49 132 132 132 132 132 132 132 220 16 16 217 217 217 217
 217 217 217 113 113 113 113 36 49 49 49 49 49 222 222 222 132 132 132 132
 132 220 220 220 16 217 217 217 217 217 217 217 113 113 113 171 36 36 49 49
 49 222 222 222 222 222 132 132 132 132 220 220 220 220 217 217 217 217 217 217
 51 51 51 51 51 221 221 221 221 221 222 222 222 222 222 132 132 132 220 220
 220 220 220 220 217 217 217 217 51 51 51 51 51 169 221 221 221 221 221 222
 222 222 222 222 23 23 23 220 220 220 220 220 220 217 217 217 217 214 51 51
 51 169 169 169 221 221 221 221 221 92 92 92 92 23 23 23 23 220 220 220
 220 192 214 214 214 214 214 214 51 51 169 169 169 194 221 221 221 221 44 44
 44 44 23 23 23 118 118 220 220 192 192 214 214 214 214 214 214 169 169 169
 169 169 194 194 221 221 44 44 44 44 44 44 23 118 118 118 118 118 192 192
 192 214 214 214 214 214 170 169 169 169 194 194 194 168 168 44 44 44 44 44
 44 118 118 118 118 118 118 192 192 192 214 214 214 214 170 170 170 169 169 232
 194 168 168 168 168 44 44 44 44 44 118 118 118 118 118 147 147 147 192 214
 214 214 159 241 241 241 241 232 232 232 168 168 168 168 168 44 44 44 78 78
 118 118 118 204 147 147 147 147 159 159 159 240 241 241 241 70 70 232 232 232
 168 168 168 168 117 117 78 78 78 78 204 204 204 147 147 147 240 240 240 240
 240 241 241 70 70 70 70 232 232 232 168 168 117 117 78 78 78 78 78 78
 204 204 204 147 147 240 240 240 240 240 240 70 70 70 70 70 70 232 232 232
 98 117 117 78 78 78 78 78 78 204 204 204 204 204 240 240 240 240 240 240
 70 70 70 70 70 70 232 232 55 55 117 117 78 78 78 78 78 78 204 204
 204 204 204 240 240 240 240 121 70 70 70 70 70 70 70 206 206 206 206 206
 117 117 117 78 78 78 78 204 144 144 204 204 240 240 240 240 121 121 121 70
 70 70 145 206 206 206 206 206 206 206 117 117 78 78 78 173 173 173 173 173
 165 165 165 240 240 121 121 121 229 70 145 145 206 206 206 206 206 206 142 142
 104 104 104 144 144 144 144 173 173 165 165 165 165 121 121 121 121 229 229 145
 145 206 206 206 206 206 206 142 104 104 104 104 104 144 144 144 144 165 165 165
 165 121 121 121 121 121 229 229 141 141 206 206 206 206 206 206 104 104 104 104
 104 104 104 144 160 149 149 149 165 165 121 121 121 121 121 229 229 141 141 206
 206 206 206 206 1 104 104 104 104 104 116 116 160 160 149 149 149 149 149 121
 121 121 121 121 229 229 229 141 141 206 206 1 1 1 104 104 104 104 116 116
 116 160 160 149 149 149 149 149 121 121 121 121 229 229 229 229 141 148 148 148
 148 1 239 239 104 104 116 116 116 116 160 160 149 149 149 149 149 121 121 121
 121 229 229 229 229 148 148 148 148 148 239 239 239 239 116 116 116 116 116 160
 160 149 149 149 149 149 149 106 53 53 53 229 229 229 148 148 148 148 148 239
 239 239 239 239 184 184 116 116 160 149 149 149 149 149 149 81 81 53 53 53
 53 53 63 63 63 63 63 63 239 239 239 239 239 184 184 184 184 14 149 149
 149 149 149 115 81 81 53 53 53 53 53 63 63 63 63 63 63 63 239 239
 239 239 184 184 184 184 14 14 149 149 115 115 115 115 115 115 53 53 53 53
 88 63 63 63 63 63 63 63 239 239 132 132 132 132 132 132 16 16 16 115
 115 115 115 115 115 53 53 53 53 171 171 36 49 49 49 49 49 49 132 132
 132 132 132 132 132 16 16 16 16 115 115 115 115 217 217 53 113 171 171 171
 36 49 49 49 49 49 49 132 132 132 132 132 132 132 16 16 16 16 217 217
 217 217 217 217 51 51 113 36 36 36 36 49 49 49 222 222 222 132 132 132
 132 132 132 16 16 16 16 217 217 217 217 217 217 51 51 51 171 36 36 36
 49 49 222 222 222 222 222 132 132 132 132 220 16 16 16 16 217 217 217 217
 217 51 51 51 51 51 96 96 96 221 221 222 222 222 222 222 132 132 132 132
 220 220 16 16 16 217 217 217 217 51 51 51 51 51 51 96 96 96 221 221
 222 222 222 222 222 23 23 23 23 220 220 220 16 16 192 217 217 217 51 51
 51 51 51 169 96 96 96 221 221 222 222 222 222 23 23 23 23 23 23 220
 220 192 192 192 214 214 214 214 51 51 51 169 169 169 194 194 221 158 158 44
 44 44 44 23 23 23 23 118 118 192 192 192 192 214 214 214 205 205 51 51
 169 169 169 194 194 168 158 44 44 44 44 44 23 23 118 118 118 118 118 192
 192 192 192 214 214 214 170 170 170 169 169 169 194 168 168 168 44 44 44 44
 44 23 23 118 118 118 118 118 192 192 192 192 214 214 170 170 170 170 170 169
 120 168 168 168 168 168 44 44 44 44 163 118 118 118 118 118 118 147 192 192
 192 214 214 31 170 170 170 170 170 120 120 168 168 168 168 44 44 44 117 78
 118 118 118 118 118 147 147 147 31 31 31 31 31 170 170 170 70 70 70 232
 232 168 168 168 117 117 117 117 78 78 78 204 204 204 147 147 147 31 31 31
 31 31 170 170 70 70 70 70 70 232 168 168 168 117 117 117 117 78 78 78
 204 204 204 147 147 147 31 31 31 31 240 240 70 70 70 70 70 70 232 55
 55 55 117 117 117 117 78 78 78 78 204 204 204 147 147 240 240 240 240 240
 240 70 70 70 70 70 70 70 55 55 55 117 117 117 117 78 78 78 78 204
 204 204 204 204 240 240 240 240 121 70 70 70 70 70 70 70 55 55 55 206
 117 117 117 117 117 117 24 24 24 144 144 165 165 165 165 240 240 121 121 121
 70 70 70 70 206 206 206 206 206 142 142 142 142 142 142 24 24 173 173 173
 165 165 165 165 165 165 121 121 121 229 141 141 141 206 206 206 206 206 142 142
 142 142 142 142 6 6 144 144 173 165 165 165 165 165 165 121 121 121 229 141
 141 141 206 206 206 206 206 142 142 142 142 142 142 142 6 144 230 165 165 165
 165 165 165 121 121 121 121 229 141 141 141 141 206 206 206 206 142 142 142 142
 104 142 142 230 230 230 165 165 165 165 165 165 121 121 121 229 229 229 141 141
 141 206 206 206 206 142 142 104 104 104 104 116 116 230 160 149 149 165 165 165
 121 121 121 121 229 229 229 141 141 141 141 206 1 239 239 104 104 104 104 116
 116 116 160 160 149 149 149 149 149 121 121 121 121 229 229 229 229 141 141 148
 148 148 239 239 239 239 104 116 116 116 116 160 160 149 149 149 149 149 121 121
 121 121 229 229 229 229 141 141 148 148 148 239 239 239 239 239 116 116 116 116
 116 160 149 149 149 149 149 149 121 53 53 53 53 229 229 141 148 148 148 239
 239 239 239 239 239 116 116 116 116 116 149 149 149 149 149 115 53 53 53 53
 53 53 53 88 88 63 63 63 63 239 239 239 239 239 184 184 184 184 45 149
 149 149 149 115 115 53 53 53 53 53 53 53 88 88 63 63 63 63 239 239
 239 239 239 184 184 184 132 45 16 16 16 115 115 115 115 53 53 53 53 53
 53 88 171 36 63 49 49 49 239 239 239 239 132 132 132 132 45 16 16 16
 115 115 115 115 115 115 53 53 53 53 171 171 36 36 49 49 49 49 49 132
 132 132 132 132 132 132 16 16 16 16 115 115 115 115 217 53 53 53 171 171
 171 36 36 49 49 49 49 49 132 132 132 132 132 132 132 16 16 16 16 16
 217 217 217 217 217 51 51 171 171 171 36 36 49 49 49 222 222 222 132 132
 132 132 132 132 16 16 16 16 217 217 217 217 217 51 51 51 51 171 171 36
 36 49 49 49 222 222 222 132 132 132 132 132 132 16 16 16 16 16 217 217
 217 217 51 51 51 51 51 96 96 96 200 200 222 222 222 222 222 23 23 23
 23 220 16 16 16 16 16 217 217 217 205 51 51 51 51 51 96 96 96 200
 200 222 222 222 222 233 23 23 23 23 23 220 16 16 16 16 217 217 217 205
 51 51 51 51 51 96 96 96 200 200 158 222 222 233 233 23 23 23 23 23
 23 215 215 192 192 192 214 205 205 205 51 51 51 169 96 194 96 200 158 158
 44 44 44 233 23 23 23 23 118 118 215 215 192 192 192 205 205 205 205 205
 51 169 169 194 194 194 158 158 158 44 44 44 44 23 23 23 118 118 118 215
 215 192 192 192 205 205 205 205 170 170 170 169 120 120 168 168 168 168 44 44
 44 163 163 23 118 118 118 118 118 215 192 192 192 31 205 205 170 170 170 170
 170 120 120 120 168 168 168 44 163 163 163 163 163 118 118 118 118 118 147 192
 192 31 31 31 31 170 170 170 170 170 120 120 120 168 168 168 163 163 163 163
 163 163 118 118 118 118 147 147 147 31 31 31 31 31 170 170 170 170 70 70
 120 120 168 168 168 117 117 117 117 117 117 24 24 118 204 147 147 147 31 31
 31 31 31 170 170 70 70 70 70 70 55 55 55 55 117 117 117 117 117 117
 24 24 24 204 147 147 147 31 31 31 31 31 31 70 70 70 70 70 70 55
 55 55 55 117 117 117 117 117 117 24 24 24 204 204 147 147 31 31 31 31
 31 70 70 70 70 70 70 70 55 55 55 55 117 117 117 117 117 117 24 24
 24 204 204 204 147 240 240 31 240 94 94 70 70 70 70 70 55 55 55 55
 55 55 117 117 117 117 117 6 24 24 24 165 165 165 165 165 165 165 94 94
 229 229 70 70 70 55 55 55 55 55 142 142 142 142 142 142 6 6 6 6
 165 165 165 165 165 165 165 94 94 229 229 141 141 141 206 206 206 206 142 142
 142 142 142 142 142 6 6 6 6 165 165 165 165 165 165 165 121 229 229 229
 141 141 141 141 206 206 206 142 142 142 142 142 142 142 142 6 6 230 230 165
 165 165 165 165 165 121 229 229 229 141 141 141 141 206 206 206 142 142 142 142
 142 142 142 142 230 230 230 230 165 165 165 165 165 121 121 229 229 229 229 141
 141 141 141 206 206 142 142 142 142 142 142 142 142 230 230 230 230 165 165 165
 165 165 121 121 229 229 229 229 141 141 141 141 102 102 239 142 142 142 142 104
 116 116 116 230 230 230 230 165 165 165 121 121 121 229 229 229 229 229 141 141