# vtk DataFile Version 2.0
Data set from ImportExport Version 6.5.171.b0b162591
ASCII

DATASET RECTILINEAR_GRID
DIMENSIONS 30 30 30
X_COORDINATES 30 float
-1.250000 1.250000 3.750000 6.250000 8.750000 11.250000 13.750000 16.250000 18.750000 21.250000 23.750000 26.250000 28.750000 31.250000 33.750000 36.250000 38.750000 41.250000 43.750000 46.250000 48.750000 
51.250000 53.750000 56.250000 58.750000 61.250000 63.750000 66.250000 68.750000 71.250000 
Y_COORDINATES 30 float
-1.250000 1.250000 3.750000 6.250000 8.750000 11.250000 13.750000 16.250000 18.750000 21.250000 23.750000 26.250000 28.750000 31.250000 33.750000 36.250000 38.750000 41.250000 43.750000 46.250000 48.750000 
51.250000 53.750000 56.250000 58.750000 61.250000 63.750000 66.250000 68.750000 71.250000 
Z_COORDINATES 30 float
-1.250000 1.250000 3.750000 6.250000 8.750000 11.250000 13.750000 16.250000 18.750000 21.250000 23.750000 26.250000 28.750000 31.250000 33.750000 36.250000 38.750000 41.250000 43.750000 46.250000 48.750000 
51.250000 53.750000 56.250000 58.750000 61.250000 63.750000 66.250000 68.750000 71.250000 
CELL_DATA 24389
SCALARS FeatureIds int 1
LOOKUP_TABLE default
 41 41 164 229 229 229 229 229 229 229 61 61 61 61 61 61 159 159 159 159
 159 159 135 135 135 135 41 41 41 41 41 164 164 229 229 229 229 229 229 61
 61 61 61 61 61 61 159 159 159 159 159 135 135 135 135 41 41 41 41 41
 164 164 164 163 163 163 163 163 70 61 61 61 61 61 61 245 159 221 159 135
 135 135 135 135 41 41 41 41 41 164 164 163 163 163 163 163 163 70 70 61
 61 61 245 245 245 221 221 221 221 135 135 135 135 128 128 128 85 85 85 85
 163 163 163 163 163 163 163 70 70 245 245 245 245 245 221 221 221 221 39 39
 39 39 128 128 128 85 85 85 85 163 163 163 163 163 163 163 163 163 245 245
 245 245 245 221 221 221 39 39 39 39 39 128 128 128 85 85 85 85 200 200
 163 163 163 163 163 163 163 245 245 245 239 239 239 221 221 39 39 39 39 39
 128 128 128 85 85 85 85 200 200 200 163 163 163 163 163 163 245 245 245 239
 239 239 239 221 39 39 39 39 39 39 128 85 227 85 227 18 18 200 200 163
 163 163 163 163 163 245 245 239 239 239 239 239 239 39 39 39 39 39 39 227
 227 227 227 227 18 18 18 92 92 163 163 163 163 236 236 236 236 236 239 239
 239 87 39 39 39 39 39 73 227 227 227 227 227 227 18 43 171 171 171 171
 165 236 236 236 236 236 236 236 239 239 35 35 39 73 73 73 73 227 227 227
 227 227 227 43 43 171 171 171 171 165 165 236 236 236 236 236 236 236 35 35
 35 35 73 73 73 73 227 227 227 227 227 43 43 43 171 171 171 171 165 165
 165 236 236 236 236 236 236 35 35 35 192 192 73 73 73 227 227 227 227 227
 43 43 43 171 171 171 171 165 165 165 236 236 236 236 236 236 192 192 192 192
 192 192 192 73 227 227 227 227 227 43 43 171 171 171 171 171 102 165 165 44
 103 103 103 103 103 192 192 192 192 192 192 192 192 227 227 227 227 227 43 43
 137 137 137 137 102 102 102 102 102 103 103 103 103 103 192 192 192 192 192 192
 192 192 227 227 179 179 179 179 137 137 137 137 137 102 102 102 102 102 103 103
 103 103 74 192 192 192 192 192 192 192 192 208 208 179 179 179 179 179 137 137
 137 102 102 102 102 102 102 102 103 103 74 74 192 192 192 192 192 192 192 208
 208 208 179 179 179 179 179 139 139 139 102 102 102 102 102 102 102 102 102 97
 97 97 192 192 192 192 192 208 208 208 208 179 179 179 179 179 139 139 139 102
 102 102 102 102 102 102 102 58 97 97 97 97 97 167 167 167 208 208 208 208
 179 179 179 179 178 178 83 83 102 102 102 102 102 102 102 58 58 97 97 97
 97 97 167 167 167 208 208 208 208 179 179 178 178 178 178 178 83 102 102 102
 102 102 102 102 58 58 97 97 97 97 97 167 167 167 208 208 208 208 178 178
 178 178 178 178 178 232 232 243 243 243 243 243 58 58 58 97 97 97 97 97
 167 167 167 167 208 208 208 178 178 178 178 178 178 178 178 243 243 243 243 243
 47 47 58 58 97 97 97 97 97 167 167 167 82 82 107 107 155 155 178 178
 178 178 178 178 47 47 47 47 47 47 33 33 159 159 159 159 159 159 167 167
 82 107 107 107 107 155 155 155 178 178 178 229 229 47 47 47 47 47 47 33
 33 159 159 159 159 159 161 161 82 107 107 107 107 107 155 155 155 178 178 229
 229 229 229 47 47 47 47 47 33 33 159 159 159 159 161 161 161 161 107 107
 107 107 107 155 155 155 155 229 229 229 229 229 47 47 47 47 47 33 159 159
 159 159 159 161 161 161 161 107 107 107 107 107 155 155 155 155 229 229 229 229
 229 229 47 61 61 61 61 61 159 159 159 159 159 161 161 161 107 107 107 107
 107 41 41 164 229 229 229 229 229 229 229 229 61 61 61 61 61 61 159 159
 159 159 159 159 135 135 41 41 41 41 41 41 164 164 229 229 229 229 229 229
 61 61 61 61 61 61 61 159 159 159 159 159 135 135 135 41 41 41 41 41
 41 164 164 164 229 229 229 70 70 70 61 61 61 61 61 61 245 221 221 221
 159 135 135 135 41 41 41 41 41 41 164 164 164 56 163 163 70 70 70 70
 70 61 61 245 245 245 221 221 221 221 221 135 135 41 41 41 41 85 85 85
 85 56 56 56 163 70 70 70 70 70 245 245 245 245 245 221 221 221 221 221
 39 39 39 128 128 128 85 85 85 85 56 56 56 56 163 70 70 70 70 245
 245 245 245 245 221 221 221 221 39 39 39 39 128 128 128 85 85 85 85 85
 56 56 56 163 163 70 70 70 245 245 245 239 239 239 221 221 39 39 39 39
 39 39 128 85 85 85 85 85 85 200 56 56 163 163 163 163 245 245 245 245
 239 239 239 239 87 39 39 39 39 39 39 85 85 85 85 85 85 85 200 92
 92 163 163 163 163 245 245 245 239 239 239 239 239 87 87 39 39 39 39 39
 85 85 227 227 227 227 18 43 92 92 92 92 92 236 236 236 236 236 236 239
 239 87 87 87 39 39 39 39 73 227 227 227 227 227 227 43 43 92 92 92
 92 92 236 236 236 236 236 236 236 175 175 87 87 39 73 73 73 73 73 227
 227 227 227 43 43 43 171 92 171 171 171 236 236 236 236 236 236 236 175 175
 35 35 35 73 73 73 73 73 227 227 227 227 43 43 43 171 171 171 171 165
 165 236 236 236 236 236 236 175 175 192 192 192 192 73 73 73 227 227 227 227
 227 43 43 43 171 171 171 171 165 44 44 44 236 236 236 236 175 192 192 192
 192 192 192 192 73 227 227 227 105 105 43 43 43 171 171 171 171 102 102 44
 44 103 103 103 103 103 192 192 192 192 192 192 192 192 227 227 105 105 105 105
 43 137 137 137 137 102 102 102 102 44 103 103 103 103 74 74 192 192 192 192
 192 192 192 227 227 105 105 105 105 43 137 137 137 137 102 102 102 102 102 103
 103 103 103 74 74 192 192 192 192 192 192 192 208 105 179 179 179 179 179 137
 137 137 102 102 102 102 102 102 102 103 103 74 74 74 144 144 192 192 192 124
 124 208 208 179 179 179 179 179 83 83 83 102 102 102 102 102 102 102 102 103
 74 74 74 144 144 144 192 124 124 124 208 179 179 179 179 179 179 83 83 83
 83 102 102 102 102 102 102 58 58 58 97 97 97 144 144 124 124 124 124 208
 208 179 179 179 179 228 83 83 83 83 102 102 102 102 102 102 58 58 58 97
 97 97 97 167 124 124 124 124 124 208 179 179 178 178 178 228 83 83 232 232
 102 102 102 102 58 58 58 58 97 97 97 97 167 218 218 218 218 218 208 179
 178 178 178 178 178 178 232 232 232 232 47 47 47 58 58 58 58 97 97 97
 97 82 82 218 218 218 218 208 178 178 178 178 178 178 178 232 232 232 47 47
 47 47 153 58 58 58 97 97 97 97 82 82 82 82 82 107 107 155 155 178
 178 178 178 229 232 232 47 47 47 47 47 153 153 153 159 159 159 159 159 82
 82 82 82 107 107 107 107 155 155 178 178 229 229 229 229 47 47 47 47 47
 153 153 153 159 159 159 159 159 159 82 82 107 107 107 107 107 155 155 178 229
 229 229 229 229 47 47 47 47 47 153 153 153 159 159 159 159 159 159 82 107
 107 107 107 107 107 155 155 155 229 229 229 229 229 229 47 47 47 47 153 153
 159 159 159 159 159 159 159 159 107 107 107 107 107 107 155 155 229 229 229 229
 229 229 229 229 61 61 61 61 61 159 159 159 159 159 159 159 159 107 107 107
 107 107 41 41 164 229 229 229 229 229 229 229 229 61 61 61 61 61 61 161
 159 159 159 159 159 159 41 41 41 41 41 41 41 164 164 229 229 229 229 229
 229 229 61 61 61 61 61 61 161 159 159 159 159 159 159 41 41 41 41 41
 41 41 164 164 164 229 229 229 229 70 70 70 61 61 61 61 61 221 221 221
 221 221 221 135 41 41 41 41 41 41 41 164 164 164 56 56 56 70 70 70
 70 70 61 245 245 245 221 221 221 221 221 221 221 41 41 41 41 41 41 85
 85 85 56 56 56 56 70 70 70 70 70 70 245 245 245 221 221 221 221 221
 221 221 39 41 41 41 41 85 85 85 85 56 56 56 56 70 70 70 70 70
 245 245 245 245 221 221 221 221 221 39 39 39 39 41 41 85 85 85 85 85
 56 56 56 56 56 70 70 70 70 245 245 245 245 239 221 221 221 221 39 39
 39 39 39 85 85 85 85 85 85 56 56 56 56 56 56 70 70 70 245 245
 245 239 239 239 87 87 87 39 39 39 39 39 85 85 85 85 85 85 85 56
 56 56 56 56 70 70 70 245 245 239 239 239 239 87 87 87 39 39 39 39
 39 85 85 85 85 85 85 43 92 92 92 92 92 92 236 236 236 236 236 236
 239 239 87 87 87 39 39 39 39 73 85 85 227 227 227 43 43 92 92 92
 92 92 92 234 234 236 236 236 236 175 175 175 87 87 39 73 73 73 73 73
 227 227 227 227 43 43 43 92 92 92 92 92 234 234 234 236 236 236 175 175
 175 87 192 73 73 73 73 73 73 227 227 227 43 43 43 43 171 171 171 171
 171 234 234 234 236 236 236 175 175 175 192 192 192 192 73 73 73 227 227 227
 227 43 43 43 43 171 171 171 171 171 44 44 44 234 234 236 175 175 175 192
 192 192 192 192 192 73 227 227 105 105 105 43 43 43 171 171 171 171 102 44
 44 44 44 103 103 103 175 192 192 192 192 192 192 192 192 105 105 105 105 105
 105 43 43 137 137 137 102 102 102 44 44 44 103 103 103 74 74 192 192 192
 192 192 192 192 105 105 105 105 105 105 43 137 137 137 137 102 102 102 102 44
 44 103 103 74 74 74 74 144 192 192 192 192 192 105 105 105 105 105 105 83
 83 83 137 102 102 102 102 102 102 44 44 103 74 74 74 144 144 144 192 124
 124 124 124 105 179 179 179 179 83 83 83 83 83 102 102 102 102 102 102 102
 58 74 74 74 144 144 144 124 124 124 124 124 179 179 179 179 179 228 83 83
 83 83 102 102 102 102 102 102 58 58 58 58 97 144 144 144 124 124 124 124
 124 124 179 179 179 228 228 228 83 83 83 83 102 102 102 102 58 58 58 58
 58 97 97 97 144 124 124 124 124 124 124 179 179 228 228 228 228 228 83 232
 232 232 102 102 102 58 58 58 58 58 97 97 97 97 218 218 218 218 218 218
 179 178 228 228 228 228 228 232 232 232 232 232 232 58 58 58 58 58 58 97
 97 97 82 82 218 218 218 218 218 107 178 178 178 228 228 232 232 232 232 232
 47 47 47 153 153 58 58 58 97 97 97 82 82 82 82 82 218 107 107 107
 178 178 229 229 229 232 232 232 47 47 47 47 153 153 153 153 159 159 159 159
 82 82 82 82 107 107 107 107 107 155 229 229 229 229 229 229 47 47 47 47
 47 153 153 153 153 159 159 159 159 82 82 82 107 107 107 107 107 107 155 229
 229 229 142 142 142 229 47 47 47 47 153 153 153 161 159 159 159 159 159 82
 107 107 107 107 107 107 107 155 229 229 229 142 142 229 229 47 47 47 47 153
 153 153 161 161 159 159 159 159 159 107 107 107 107 107 107 107 107 229 229 229
 229 229 229 229 229 61 61 61 61 153 159 161 161 159 159 159 159 159 107 107
 107 107 107 41 41 164 164 164 229 229 229 229 229 229 61 61 61 61 61 61
 161 161 159 159 159 159 159 41 41 41 41 41 41 41 164 164 164 229 229 229
 229 229 229 61 61 61 61 61 61 161 159 159 159 159 159 41 41 41 41 41
 41 41 41 164 164 164 229 229 229 229 229 229 70 61 61 61 61 245 221 221
 221 221 221 221 41 41 41 41 41 41 41 41 164 164 164 56 56 56 70 70
 70 70 70 61 245 245 245 221 221 221 221 221 221 221 41 41 41 41 41 41
 85 85 164 56 56 56 56 70 70 70 70 70 70 245 245 245 221 221 221 221
 221 221 221 76 41 41 41 41 85 85 85 85 56 56 56 56 56 70 70 70
 70 245 245 245 245 221 221 221 221 221 221 39 39 76 76 41 85 85 85 85
 85 56 56 56 56 56 56 70 70 70 245 245 245 245 221 221 221 221 221 39
 39 39 76 76 85 85 85 85 85 85 56 56 56 56 56 56 70 70 70 245
 245 245 239 239 221 87 87 87 39 39 39 39 39 85 85 85 85 85 85 56
 56 56 56 56 56 40 70 234 234 245 239 239 239 87 87 87 87 87 39 39
 39 39 85 85 85 85 85 85 85 92 92 92 92 40 40 40 234 234 234 236
 175 175 175 87 87 87 87 39 39 73 73 240 85 227 227 43 43 43 92 92
 92 92 40 40 40 234 234 234 234 175 175 175 175 87 87 87 73 73 73 73
 240 227 227 227 43 43 43 43 92 92 92 40 40 40 234 234 234 234 175 175
 175 175 87 87 87 73 73 73 73 240 227 227 227 43 43 43 43 92 92 92
 40 40 234 234 234 234 234 175 175 175 175 175 192 192 192 160 160 160 240 227
 105 105 43 43 43 43 43 171 171 171 40 44 44 234 234 234 234 175 175 175
 192 192 192 192 160 160 160 160 227 105 105 105 43 43 43 43 171 171 102 102
 44 44 44 44 234 234 234 175 192 192 192 192 192 192 160 160 105 105 105 105
 105 105 43 43 137 137 137 102 102 44 44 44 44 44 103 103 74 74 74 144
 192 192 192 160 160 105 105 105 105 105 105 43 137 137 137 102 102 102 102 44
 44 44 44 44 74 74 74 74 144 144 192 192 124 124 105 105 105 105 105 105
 228 83 83 83 102 102 102 102 102 44 44 44 44 74 74 74 74 144 144 144
 124 124 124 124 105 105 179 179 228 228 83 83 83 83 102 102 102 102 102 44
 44 58 74 74 74 144 144 144 124 124 124 124 124 124 179 179 228 228 228 83
 83 83 83 83 102 102 102 102 102 58 58 58 58 74 144 144 144 124 124 124
 124 124 124 179 32 228 228 228 228 83 83 83 83 102 102 102 102 58 58 58
 58 58 58 97 97 144 124 124 124 124 124 124 32 32 228 228 228 228 228 83
 232 232 232 232 102 58 58 58 58 58 58 58 97 97 218 218 218 218 218 218
 218 32 32 228 228 228 228 228 232 232 232 232 232 232 58 58 58 58 58 58
 58 97 97 82 82 218 218 218 218 218 107 228 228 228 228 228 228 232 232 232
 232 232 47 47 153 153 58 58 58 58 97 82 82 82 82 82 82 218 107 107
 107 228 228 228 229 229 232 232 232 232 47 47 153 153 153 153 153 58 159 159
 159 82 82 82 82 82 107 107 107 107 107 229 229 229 229 229 229 232 47 47
 47 153 153 153 153 153 159 159 159 159 82 82 82 82 107 107 107 107 107 107
 229 229 229 142 142 142 229 47 47 47 153 153 153 153 153 159 159 159 159 183
 183 82 107 107 107 107 107 107 164 229 229 229 229 142 229 229 229 47 47 47
 153 153 153 161 161 159 159 159 159 183 107 107 107 107 107 107 107 164 164 229
 229 229 229 229 229 229 47 61 61 61 153 153 161 161 159 159 159 159 159 107
 107 107 107 107 41 164 164 164 164 229 229 229 229 229 229 229 61 61 61 61
 166 166 161 159 159 159 159 41 41 41 41 41 41 41 164 164 164 164 164 229
 229 229 229 229 229 61 61 61 61 166 166 221 221 159 159 159 41 41 41 41
 41 41 41 164 164 164 164 164 229 229 229 229 229 70 127 61 61 127 24 221
 221 221 221 221 221 41 41 41 41 41 41 41 164 164 164 164 56 56 56 56
 70 70 70 70 8 8 245 221 221 221 221 221 221 221 76 76 41 41 41 41
 41 85 164 56 56 56 56 56 56 70 70 70 8 8 8 245 221 221 221 221
 221 221 221 76 76 76 76 41 41 85 85 85 56 56 56 56 56 56 56 70
 70 8 8 8 245 221 221 221 221 221 221 221 76 76 76 76 76 85 85 85
 85 85 56 56 56 56 56 56 70 70 8 8 8 245 221 221 221 221 221 221
 221 39 76 76 76 76 85 85 85 85 85 56 56 56 56 56 56 56 70 8
 8 8 245 221 221 221 221 87 87 87 39 76 76 76 85 85 85 85 85 85
 56 56 56 56 56 56 40 40 234 234 234 234 239 239 87 87 87 87 87 39
 39 76 76 85 85 85 85 85 85 43 92 92 92 92 40 40 40 234 234 234
 234 175 175 175 87 87 87 87 39 39 73 240 240 85 227 227 43 43 43 92
 92 92 92 40 40 40 234 234 234 234 175 175 175 175 87 87 87 73 73 73
 240 240 240 240 227 43 43 43 92 92 92 40 40 40 40 234 234 234 234 175
 175 175 175 143 143 143 160 160 160 240 240 240 227 227 43 43 43 43 92 92
 92 40 40 40 234 234 234 234 234 175 175 143 143 143 143 160 160 160 160 240
 240 105 105 43 43 43 43 43 92 92 40 40 44 44 234 234 234 234 234 175
 143 143 143 143 160 160 160 160 160 240 105 105 105 43 43 43 43 171 171 102
 44 44 44 44 44 234 234 234 175 143 143 143 192 160 160 160 160 160 105 105
 105 105 105 43 43 43 137 137 102 102 44 44 44 44 44 44 74 74 74 144
 144 144 192 160 160 160 160 105 105 105 105 105 43 43 137 137 102 102 102 44
 44 44 44 44 44 74 74 74 144 144 144 144 192 124 160 160 105 105 105 105
 105 228 83 83 83 102 102 102 102 44 44 44 44 44 74 74 74 144 144 144
 144 124 124 124 124 105 105 105 105 228 228 83 83 83 83 102 102 102 102 44
 44 44 58 74 74 74 144 144 144 124 124 124 124 124 124 32 32 228 228 228
 228 83 83 83 83 102 102 102 102 58 58 58 58 58 74 144 144 144 124 124
 124 124 124 124 32 32 228 228 228 228 228 83 83 83 102 102 102 46 58 58
 58 58 58 58 58 144 144 124 124 124 124 124 124 32 32 228 228 228 228 228
 228 83 232 232 232 46 46 46 58 58 58 58 58 58 58 218 218 218 218 218
 218 218 32 32 228 228 228 228 228 228 232 232 232 232 46 46 46 58 58 58
 58 58 58 183 82 82 82 218 218 218 218 32 32 228 228 228 228 228 232 232
 232 232 232 47 153 153 153 58 58 58 58 58 183 82 82 82 82 82 218 218
 107 32 228 228 228 228 228 232 232 232 232 232 47 153 153 153 153 153 58 159
 159 183 82 82 82 82 82 107 107 107 107 107 229 229 229 229 229 229 232 232
 47 47 153 153 153 153 153 159 159 159 183 183 82 82 82 107 107 107 107 107
 107 229 229 229 229 142 229 229 229 47 47 153 153 153 153 153 159 159 159 183
 183 183 183 107 107 107 107 107 107 164 229 229 229 229 229 229 229 229 47 47
 153 153 153 153 153 161 159 159 159 183 183 183 107 107 107 107 107 164 164 164
 164 229 229 229 229 229 229 229 61 61 153 153 153 161 161 159 159 159 183 183
 183 107 107 107 41 41 164 164 164 164 164 229 229 229 229 229 229 127 127 127
 166 166 166 166 166 166 166 183 183 183 41 41 41 41 41 164 164 164 164 164
 229 229 229 229 229 127 127 127 127 127 166 166 166 166 166 220 183 183 41 41
 41 41 41 41 164 164 164 164 164 229 229 229 229 229 127 127 127 127 127 24
 24 24 221 221 221 221 41 41 41 41 41 41 41 164 164 164 164 56 56 56
 56 56 127 127 127 127 127 127 24 24 221 221 221 221 221 76 76 76 41 41
 41 41 164 164 56 56 56 56 56 56 56 70 8 8 8 8 8 24 221 221
 221 221 221 221 76 76 76 76 41 41 85 85 85 56 56 56 56 56 56 56
 70 8 8 8 8 8 221 221 221 221 221 221 221 76 76 76 76 76 76 85
 85 85 85 56 56 56 56 56 56 25 8 8 8 8 8 221 221 221 221 221
 221 221 76 76 76 76 76 85 85 85 85 242 242 242 56 56 56 25 25 8
 8 8 8 8 221 221 221 221 221 87 87 76 76 76 76 76 85 85 85 85
 242 242 242 242 56 56 25 25 8 8 8 8 234 221 221 87 87 87 87 87
 76 76 76 76 85 85 85 85 85 242 242 242 242 92 40 40 40 40 234 234
 234 234 234 175 175 87 87 87 87 104 104 104 240 240 240 101 101 101 43 43
 92 92 92 40 40 40 40 234 234 234 234 234 175 175 175 87 87 87 104 104
 104 240 240 240 101 101 101 43 43 92 92 92 40 40 40 40 234 234 234 234
 234 175 175 143 143 143 143 160 160 160 240 240 240 101 101 101 43 43 43 92
 92 40 40 40 40 234 234 234 234 234 175 143 143 143 143 143 160 160 160 160
 240 240 105 105 43 43 43 43 43 92 40 40 40 44 234 234 234 234 234 234
 143 143 143 143 143 160 160 160 160 160 240 105 105 105 43 43 4 4 92 40
 40 44 44 44 44 234 234 234 234 143 143 143 143 143 160 160 160 160 160 105
 105 105 105 105 4 4 4 4 4 102 2 44 44 44 44 44 234 234 74 143
 143 143 16 16 160 160 160 160 105 105 105 105 105 4 4 4 4 102 2 2
 2 44 44 44 44 44 74 74 74 144 144 144 16 16 16 34 34 105 105 105
 105 105 4 4 83 83 102 2 2 2 2 44 44 44 44 74 74 74 144 144
 144 144 124 124 34 34 34 32 32 32 228 228 228 228 83 83 2 2 2 2
 44 44 44 58 74 74 74 144 144 144 124 124 124 124 34 34 32 32 32 228
 228 228 228 83 83 83 2 2 2 46 46 58 58 58 58 74 144 144 144 124
 124 124 124 124 34 32 32 32 228 228 228 228 228 83 83 2 2 46 46 46
 58 58 58 58 58 58 144 124 124 124 124 124 124 32 32 32 32 228 228 228
 228 228 228 232 232 46 46 46 46 46 58 58 58 58 58 183 183 218 218 218
 218 218 32 32 32 32 228 228 228 228 228 228 232 232 232 46 46 46 46 58
 58 58 58 183 183 183 183 82 218 218 218 32 32 32 32 228 228 228 228 228
 232 232 232 232 46 46 46 46 58 58 58 58 183 183 183 183 82 82 183 183
 32 32 32 32 228 228 228 228 228 232 232 232 232 46 153 153 153 153 153 58
 183 183 183 183 183 183 183 183 107 107 107 32 9 9 228 229 229 229 229 232
 232 47 47 153 153 153 153 153 159 183 183 183 183 183 183 183 183 107 107 107
 107 164 229 229 229 229 229 229 229 229 47 47 153 153 153 153 153 159 159 183
 183 183 183 183 183 183 107 107 107 164 164 164 229 229 229 229 229 229 229 229
 47 153 153 153 153 166 166 159 183 183 183 183 183 183 183 107 107 164 164 164
 164 164 229 229 229 229 229 229 229 229 61 153 153 166 166 166 166 183 183 183
 183 183 183 183 107 41 41 164 164 164 164 164 229 146 229 229 229 127 127 127
 127 166 166 166 166 166 166 166 183 183 183 183 41 41 41 41 164 164 164 164
 164 229 229 229 229 229 127 127 127 127 127 166 166 166 166 166 220 183 183 183
 41 41 41 41 41 164 164 164 164 164 229 229 229 229 127 127 127 127 127 127
 24 24 24 24 24 220 183 217 217 41 41 41 41 188 188 164 164 164 56 56
 56 56 56 127 127 127 127 127 127 24 24 24 222 222 222 222 217 217 217 217
 41 41 188 188 164 164 56 56 56 56 56 56 127 127 127 118 127 127 24 24
 222 222 222 222 222 217 217 217 217 217 217 85 85 85 56 56 56 56 56 56
 25 25 118 8 8 8 118 24 222 222 222 222 222 222 217 217 217 217 217 217
 85 85 85 242 242 242 242 56 25 25 25 8 8 8 8 118 24 222 222 222
 222 222 222 217 217 217 217 217 85 85 85 85 242 242 242 242 242 25 25 25
 25 8 8 118 118 118 222 222 222 222 222 49 217 217 217 217 217 85 85 85
 85 242 242 242 242 242 25 25 25 25 8 8 118 169 169 222 222 87 87 87
 49 49 217 217 217 240 85 101 101 101 242 242 242 242 242 40 40 40 40 234
 234 234 169 169 175 1 87 87 87 87 104 104 104 104 240 240 101 101 101 101
 242 242 92 40 40 40 40 40 234 234 234 234 234 175 175 143 143 143 104 104
 104 104 104 240 240 101 101 101 101 43 92 92 40 40 40 40 40 234 234 234
 234 234 175 143 143 143 143 143 104 104 104 104 240 240 101 101 101 101 43 43
 60 40 40 40 40 40 234 234 234 234 234 175 143 143 143 143 143 160 160 160
 160 240 240 101 101 101 101 4 4 60 60 40 40 40 40 234 234 234 234 234
 234 143 143 143 143 143 160 160 160 160 160 240 105 105 105 4 4 4 4 4
 40 40 40 44 44 234 234 234 234 234 143 143 143 143 16 16 16 160 160 160
 105 105 105 105 4 4 4 4 4 4 2 2 2 2 44 44 234 234 36 36
 36 143 143 16 16 16 16 160 34 34 34 105 105 4 4 4 4 4 2 2
 2 2 2 2 44 44 95 95 36 36 144 16 16 16 16 16 34 34 34 34
 34 79 79 4 4 4 4 2 2 2 2 2 2 44 95 95 95 95 95 144
 16 16 16 16 34 34 34 34 34 34 32 228 228 228 228 228 83 2 2 2
 2 2 95 95 95 95 95 95 95 144 144 124 124 34 34 34 34 32 32 32
 228 228 228 228 228 228 2 2 2 2 2 95 95 95 95 95 95 95 144 38
 124 124 124 34 34 34 32 32 32 228 228 228 228 228 228 228 2 2 46 46
 46 46 95 95 95 95 95 144 183 124 124 124 124 124 32 32 32 32 228 228
 228 228 228 228 228 232 46 46 46 46 46 95 95 95 95 183 183 183 183 183
 183 218 218 32 32 32 32 228 228 228 228 228 228 232 232 46 46 46 46 46
 46 58 58 58 183 183 183 183 183 183 183 32 32 32 32 32 228 228 228 228
 228 228 232 232 46 46 46 46 46 46 58 58 183 183 183 183 183 183 183 183
 183 32 32 32 32 228 228 228 228 228 232 232 232 140 46 46 46 46 153 153
 183 183 183 183 183 183 183 183 183 183 183 9 9 9 9 9 146 146 146 146
 146 140 140 140 153 153 153 153 153 183 183 183 183 183 183 183 183 183 183 183
 107 9 9 9 146 146 146 146 146 146 146 140 140 153 153 13 153 13 166 183
 183 183 183 183 183 183 183 183 107 107 164 164 164 146 146 146 146 146 146 229
 229 13 13 13 13 13 166 166 166 183 183 183 183 183 183 183 183 107 164 164
 164 164 164 146 146 146 146 146 229 229 13 13 13 13 166 166 166 166 220 183
 183 183 183 183 183 183 41 188 164 164 164 164 120 146 146 146 229 229 127 127
 13 13 13 166 166 166 166 166 220 220 183 183 183 41 41 188 188 188 164 164
 164 120 120 186 186 186 127 127 127 127 127 127 166 166 166 166 166 220 220 183
 183 183 41 41 188 188 188 188 164 164 164 120 186 186 186 127 127 127 127 127
 127 24 24 24 24 166 220 220 217 217 217 41 41 188 188 188 188 188 164 56
 56 56 186 129 127 127 127 127 127 127 24 24 24 222 222 222 222 217 217 217
 217 217 188 188 188 188 188 56 56 56 56 129 129 129 127 127 127 127 127 24
 24 222 222 222 222 222 217 217 217 217 217 188 188 188 188 242 242 242 242 56
 129 129 129 118 118 118 118 118 24 222 222 222 222 222 49 217 217 217 217 217
 188 188 188 188 242 242 242 242 242 25 25 25 118 118 118 118 118 24 222 222
 222 222 222 49 49 217 217 217 217 217 85 85 242 242 242 242 242 242 25 25
 25 25 118 118 118 118 118 222 222 222 222 222 49 49 217 217 217 217 217 101
 101 242 242 242 242 242 242 25 25 25 25 118 169 169 169 169 1 1 1 1
 1 49 49 49 49 217 217 85 101 101 101 242 242 242 242 242 25 25 25 25
 169 169 169 169 169 1 1 1 1 1 49 104 104 104 104 104 101 101 101 101
 101 242 242 242 40 40 40 40 40 234 169 169 169 169 169 1 1 1 1 104
 104 104 104 104 104 101 101 101 101 101 101 60 60 60 40 40 40 40 234 234
 169 169 169 169 143 143 143 143 3 104 104 104 104 104 101 101 101 101 101 101
 60 60 60 60 40 40 40 234 234 234 234 234 234 143 143 143 143 3 3 104
 104 104 104 101 101 101 101 101 4 4 60 60 60 60 40 40 234 234 234 234
 234 36 36 143 143 143 3 3 3 160 160 160 101 101 101 101 4 4 4 4
 60 60 60 60 2 44 234 234 234 234 36 36 36 143 143 16 16 16 16 160
 160 34 34 238 79 4 4 4 4 4 60 2 2 2 2 2 44 234 36 36
 36 36 36 16 16 16 16 16 34 34 34 34 238 79 79 4 4 4 4 196
 2 2 2 2 2 44 95 95 95 36 36 36 16 16 16 16 16 34 34 34
 34 238 79 79 79 4 4 196 196 2 2 2 2 2 95 95 95 95 95 95
 95 16 16 16 16 34 34 34 34 34 238 79 79 79 228 228 196 196 2 2
 2 2 2 95 95 95 95 95 95 95 38 38 38 38 34 34 34 34 32 32
 32 32 228 228 228 228 196 196 2 2 2 2 95 95 95 95 95 95 95 38
 38 38 38 38 34 34 32 32 32 32 32 228 228 228 228 228 196 2 2 46
 46 46 95 95 95 95 95 95 38 38 38 38 38 34 34 32 32 32 32 32
 228 228 228 228 228 211 211 46 46 46 46 46 95 95 95 95 95 183 183 183
 183 183 183 32 32 32 32 32 32 228 228 228 228 228 211 232 46 46 46 46
 46 95 95 95 95 183 183 183 183 183 183 183 183 32 32 32 32 9 228 228
 228 228 228 232 140 140 46 46 46 46 95 95 95 183 183 183 183 183 183 183
 183 183 32 32 9 9 9 9 9 228 228 146 146 140 140 140 46 46 13 13
 13 183 183 183 183 183 183 183 183 183 183 32 9 9 9 9 9 9 146 146
 146 146 140 140 140 13 13 13 13 13 231 183 183 183 183 183 183 183 183 183
 183 9 9 9 9 9 146 146 146 146 146 140 140 140 13 13 13 13 13 231
 231 183 183 183 183 183 183 183 183 183 9 9 9 9 9 146 146 146 146 146
 140 140 13 13 13 13 13 13 166 231 220 220 183 183 183 183 183 183 183 164
 164 164 164 164 146 146 146 146 146 146 140 13 13 13 13 13 166 166 166 220
 220 220 183 183 183 183 183 183 188 188 188 164 120 120 120 186 186 186 186 131
 13 13 13 13 166 166 166 166 220 220 220 220 183 183 183 188 188 188 188 188
 188 120 120 120 186 186 186 186 131 127 127 127 13 166 166 166 166 166 220 220
 220 183 183 41 188 188 188 188 188 188 120 120 120 186 186 186 186 127 127 127
 127 127 24 24 24 166 166 220 220 220 217 217 217 188 188 188 188 188 188 120
 120 120 186 186 129 129 127 127 127 127 127 24 24 24 222 222 222 222 217 217
 217 217 217 188 188 188 188 188 188 56 56 129 129 129 129 127 127 173 173 173
 24 24 222 222 222 222 222 217 217 217 217 217 188 188 188 188 188 242 242 242
 129 129 129 129 118 118 118 118 118 24 222 222 222 222 222 49 49 217 217 217
 217 188 188 188 188 242 242 242 242 242 129 129 129 118 118 118 118 118 24 222
 222 222 222 222 49 49 49 217 217 217 188 188 188 242 242 242 242 242 242 25
 25 25 25 118 118 118 118 169 222 222 222 222 49 49 49 49 217 217 217 84
 101 101 242 242 242 242 242 242 25 25 25 25 118 169 169 169 169 1 1 1
 1 1 49 49 49 49 217 84 84 101 101 101 242 242 242 242 242 25 25 25
 25 169 169 169 169 169 1 1 1 1 1 49 49 49 104 104 104 101 101 101
 101 101 242 242 242 60 40 40 40 40 169 169 169 169 169 169 1 1 1 1
 49 104 104 104 104 104 101 101 101 101 101 101 60 60 60 60 60 40 40 169
 169 169 169 169 169 1 1 1 1 3 3 104 104 104 104 101 101 101 101 101
 60 60 60 60 60 60 60 60 234 234 169 169 169 154 143 143 143 3 3 3
 3 104 104 104 101 101 101 101 101 60 60 60 60 60 60 60 60 234 234 234
 154 154 154 36 36 143 3 3 3 3 3 104 104 101 101 101 101 4 4 4
 60 60 60 60 60 2 2 123 234 234 154 36 36 36 36 3 3 3 3 3
 160 34 34 238 238 79 79 4 4 4 60 60 60 2 2 2 2 123 95 36
 36 36 36 36 16 16 16 16 16 34 34 34 238 238 238 79 79 4 4 196
 196 2 2 2 2 2 95 95 95 95 36 36 36 16 16 16 16 16 34 34
 34 238 238 79 79 79 79 4 196 196 196 2 2 2 2 95 95 95 95 95
 95 95 16 16 16 38 34 34 34 34 238 238 79 79 79 79 196 196 196 196
 2 2 2 2 95 95 95 95 95 95 95 38 38 38 38 38 34 34 34 32
 32 79 79 207 207 207 196 196 196 2 2 2 2 95 95 95 95 95 95 95
 38 38 38 38 38 34 34 34 32 32 32 207 207 207 207 207 211 211 211 211
 46 46 95 95 95 95 95 95 95 38 38 38 38 38 38 34 32 32 32 32
 32 207 207 207 207 211 211 211 211 46 46 46 95 95 95 95 95 95 38 38
 38 38 38 145 32 32 32 32 32 32 207 207 207 207 207 211 211 140 46 46
 46 46 95 95 95 95 183 183 183 183 183 183 183 32 32 32 32 32 9 9
 207 207 207 207 140 140 140 140 46 46 46 95 95 95 183 183 183 183 183 183
 183 183 183 32 32 9 9 9 9 9 207 146 146 140 140 140 140 46 13 13
 13 13 183 183 183 183 183 183 183 183 183 183 32 9 9 9 9 9 9 146
 146 146 146 140 140 140 13 13 13 13 13 231 231 183 183 183 183 183 183 183
 183 183 9 9 9 9 9 9 146 146 146 146 140 140 140 13 13 13 13 13
 231 231 231 183 183 183 183 183 183 183 183 9 9 9 9 9 146 146 146 146
 146 140 140 13 13 13 13 13 13 231 231 220 220 220 183 183 183 183 183 183
 9 9 9 164 9 146 146 146 146 146 140 131 13 13 13 13 13 166 166 166
 220 220 220 220 183 183 183 183 183 188 188 188 188 120 120 120 186 186 186 131
 131 131 13 13 13 13 166 166 166 220 220 220 220 220 220 220 188 188 188 188
 188 188 120 120 120 186 186 186 131 131 131 173 173 13 166 166 166 166 220 220
 220 220 220 220 188 188 188 188 188 188 188 120 120 120 186 186 186 131 131 173
 173 173 173 24 24 166 166 220 220 220 220 217 217 217 188 188 188 188 188 188
 120 120 120 186 186 129 129 173 173 173 173 173 24 24 24 222 222 222 220 217
 217 217 217 188 188 188 188 188 188 188 120 120 129 129 129 129 173 173 173 173
 173 24 24 222 222 222 222 49 217 217 217 217 217 188 188 188 188 188 54 54
 54 129 129 129 129 129 173 173 173 173 24 222 222 222 222 222 49 49 49 217
 217 217 188 188 188 188 54 54 54 54 129 129 129 129 129 118 118 118 118 24
 222 222 222 222 49 49 49 49 217 217 84 84 188 188 150 54 54 54 54 54
 129 129 129 129 118 118 118 169 169 1 1 1 1 49 49 49 49 49 84 84
 84 84 150 150 150 54 54 54 54 25 25 25 25 118 169 169 169 169 1 1
 1 1 1 49 49 49 49 84 84 84 101 101 150 150 54 54 54 54 126 25
 25 169 169 169 169 169 169 1 1 1 1 1 49 49 49 49 104 84 84 101
 101 150 150 150 126 126 126 126 126 40 169 169 169 169 169 169 1 1 1 1
 1 49 104 104 104 104 104 101 101 101 101 150 150 126 60 60 60 60 60 60
 169 169 169 169 169 189 1 1 1 1 3 3 3 104 104 104 101 101 101 101
 101 60 60 60 60 60 60 60 60 169 169 169 169 154 189 189 189 3 3 3
 3 3 3 104 104 101 101 101 101 60 60 60 60 60 60 60 60 60 123 123
 123 154 154 154 189 36 3 3 3 3 3 3 3 3 162 238 238 79 60 60
 60 60 60 60 60 126 123 123 123 123 154 154 154 36 36 36 3 3 3 3