# vtk DataFile Version 2.0
Data set from ImportExport Version 6.5.171.b0b162591
ASCII

DATASET RECTILINEAR_GRID
DIMENSIONS 30 30 30
X_COORDINATES 30 float
-1.250000 1.250000 3.750000 6.250000 8.750000 11.250000 13.750000 16.250000 18.750000 21.250000 23.750000 26.250000 28.750000 31.250000 33.750000 36.250000 38.750000 41.250000 43.750000 46.250000 48.750000 
51.250000 53.750000 56.250000 58.750000 61.250000 63.750000 66.250000 68.750000 71.250000 
Y_COORDINATES 30 float
-1.250000 1.250000 3.750000 6.250000 8.750000 11.250000 13.750000 16.250000 18.750000 21.250000 23.750000 26.250000 28.750000 31.250000 33.750000 36.250000 38.750000 41.250000 43.750000 46.250000 48.750000 
51.250000 53.750000 56.250000 58.750000 61.250000 63.750000 66.250000 68.750000 71.250000 
Z_COORDINATES 30 float
-1.250000 1.250000 3.750000 6.250000 8.750000 11.250000 13.750000 16.250000 18.750000 21.250000 23.750000 26.250000 28.750000 31.250000 33.750000 36.250000 38.750000 41.250000 43.750000 46.250000 48.750000 
51.250000 53.750000 56.250000 58.750000 61.250000 63.750000 66.250000 68.750000 71.250000 
CELL_DATA 24389
SCALARS FeatureIds int 1
LOOKUP_TABLE default
 232 232 232 232 232 232 232 232 215 215 215 86 86 86 158 158 158 158 115 115
 115 115 115 115 142 142 194 194 194 232 232 232 232 232 232 232 232 215 215 75
 75 75 75 158 158 158 158 115 115 115 115 115 115 142 142 142 142 142 232 232
 232 232 232 232 232 232 204 94 94 75 75 75 158 158 158 158 115 115 115 115
 115 115 142 142 142 142 59 59 59 232 232 232 232 22 204 204 204 94 75 75
 75 75 158 158 158 115 115 115 115 115 115 142 142 142 59 59 59 59 59 232
 22 22 22 204 204 204 204 94 75 75 61 61 61 61 115 115 115 115 97 97
 37 37 37 37 59 59 59 59 59 22 22 22 204 204 204 204 204 75 61 61
 61 61 61 61 115 97 97 97 97 37 37 37 37 59 59 59 59 59 70 70
 70 204 204 204 204 204 203 203 61 61 61 61 61 97 97 97 97 97 245 37
 37 37 59 59 59 59 59 70 70 70 70 204 204 204 204 203 203 203 61 61
 61 5 97 97 97 97 245 245 37 37 37 37 59 59 59 59 70 70 70 70
 122 122 122 122 203 203 78 78 78 78 5 5 133 133 133 245 245 37 37 37
 37 37 59 59 59 70 70 70 122 122 122 122 169 169 203 78 78 78 78 5
 133 133 133 133 133 245 245 37 37 37 37 59 59 92 92 92 92 122 122 122
 169 169 169 169 78 78 78 78 133 133 133 133 133 133 133 245 37 37 37 186
 186 92 92 92 92 92 122 122 169 169 169 169 169 78 78 78 78 133 133 133
 133 133 133 133 245 186 186 186 108 108 92 92 92 92 92 140 140 169 169 169
 169 169 78 2 2 2 133 133 133 133 133 133 133 108 108 108 108 108 110 110
 110 110 110 92 140 140 17 17 17 17 17 17 2 2 2 2 229 229 229 229
 229 229 108 108 108 108 110 110 110 110 110 110 110 244 244 244 17 17 17 17
 17 2 2 2 2 2 229 229 229 229 229 35 108 108 108 110 110 110 110 110
 110 110 244 244 244 17 17 17 17 17 2 2 2 2 2 2 229 229 229 35
 35 35 35 108 110 110 110 110 110 110 110 244 244 244 244 17 17 17 17 2
 2 2 2 2 2 229 35 35 35 35 35 35 35 110 110 110 110 110 110 110
 244 244 244 244 17 17 17 17 19 2 2 2 2 2 229 35 35 35 35 35
 35 35 225 225 225 110 110 110 244 244 244 244 244 244 17 17 19 19 19 19
 19 2 2 152 35 35 35 35 35 35 35 225 225 225 225 225 225 244 244 244
 244 244 244 17 19 19 19 19 19 19 19 152 152 152 35 35 35 35 35 35
 225 225 225 225 225 225 53 53 130 130 130 130 130 19 19 19 19 19 19 19
 152 152 152 152 35 35 35 35 35 225 225 225 225 225 225 53 53 130 130 130
 130 130 19 19 19 19 19 19 152 152 152 152 152 152 35 35 35 125 225 225
 225 225 225 225 53 53 130 130 130 130 130 19 19 19 19 19 19 84 152 152
 152 152 152 152 12 125 125 214 214 214 214 214 214 36 130 130 130 130 130 222
 222 222 19 19 84 84 84 84 58 58 58 58 12 125 194 194 214 214 214 214
 214 214 36 130 130 130 222 222 222 222 222 222 84 84 84 84 84 52 52 52
 52 52 194 194 194 194 214 214 214 214 214 191 191 215 215 222 222 222 222 222
 222 84 84 84 84 52 52 52 52 52 194 194 194 194 194 214 214 214 214 191
 191 191 215 215 215 222 222 222 222 222 84 84 84 84 52 52 52 52 52 194
 194 194 194 194 194 214 214 214 191 191 191 215 215 215 222 222 222 222 222 84
 84 84 84 84 52 52 52 194 194 194 194 194 194 194 232 232 232 191 191 191
 215 215 215 86 86 86 86 158 158 54 54 54 54 54 54 54 194 194 194 194
 194 142 232 232 232 232 232 232 191 215 215 215 215 86 86 158 158 54 54 54
 54 54 54 54 54 142 142 142 142 142 142 232 232 232 232 232 232 190 190 215
 75 75 75 75 75 158 158 54 54 54 54 54 54 142 142 142 142 142 142 142
 232 232 232 232 232 232 190 190 190 75 75 75 75 75 158 158 158 115 115 115
 115 115 142 142 142 142 142 142 59 59 232 232 232 22 22 190 190 204 75 75
 75 75 75 158 158 158 115 115 115 115 97 142 142 142 142 142 59 59 59 59
 232 22 22 22 190 204 204 204 75 75 75 75 61 61 61 115 115 97 97 97
 97 37 37 37 37 59 59 59 59 59 22 22 22 204 204 204 204 204 75 75
 75 61 61 61 61 97 97 97 97 97 37 37 37 37 59 59 59 59 59 22
 22 22 204 204 204 204 204 203 203 203 61 61 61 97 97 97 97 97 97 245
 37 37 37 37 59 59 59 59 70 70 70 204 204 204 204 204 203 203 203 61
 61 5 5 97 97 97 97 245 245 37 37 37 37 37 59 59 59 70 70 70
 70 122 100 100 203 203 203 203 78 78 5 5 5 97 97 97 245 245 37 37
 37 37 37 59 59 59 70 70 70 100 100 100 100 100 169 203 78 78 78 5
 5 5 5 133 133 245 245 245 37 37 37 37 59 92 92 92 92 92 100 100
 100 100 100 169 169 78 78 78 5 5 5 133 133 133 133 245 245 37 37 37
 186 186 92 92 92 92 92 140 140 100 100 100 169 169 78 78 65 65 5 133
 133 133 133 133 245 245 186 186 186 108 108 92 92 92 92 92 140 140 140 100
 169 169 169 189 65 65 2 133 133 133 133 133 133 245 108 108 108 108 108 108
 92 92 92 92 92 140 140 140 17 17 17 17 17 2 2 2 2 133 133 133
 133 133 133 108 108 108 108 108 110 110 110 110 92 92 140 140 244 244 17 17
 17 17 2 2 2 2 2 229 229 229 229 108 108 108 108 108 110 110 110 110
 110 110 110 244 244 244 244 17 17 17 17 2 2 2 2 2 2 229 229 229
 108 108 108 108 108 110 110 110 110 110 110 110 244 244 244 244 244 17 17 17
 2 2 2 2 2 2 229 35 35 35 96 96 96 96 110 110 110 110 110 110
 244 244 244 244 244 244 17 17 17 19 2 2 2 2 2 176 35 35 35 96
 96 96 96 225 225 225 225 225 110 244 244 244 244 244 244 244 17 19 19 19
 19 19 2 176 176 176 35 35 96 96 96 96 225 225 225 225 225 225 53 53
 244 244 244 244 244 19 19 19 19 19 19 19 176 152 176 35 35 35 96 96
 96 225 225 225 225 225 225 53 53 53 130 130 130 130 19 19 19 19 19 19
 19 58 58 152 152 12 12 12 12 96 225 225 225 225 225 225 53 53 53 130
 130 130 130 19 19 19 19 19 19 58 58 58 58 58 12 12 12 12 125 225
 225 225 225 225 225 53 53 130 130 130 130 130 222 19 19 19 19 19 58 58
 58 58 58 58 12 12 125 125 125 225 214 214 36 36 36 53 130 130 130 130
 222 222 222 222 19 19 84 58 58 58 58 58 58 12 125 125 125 194 214 214
 36 36 36 36 36 130 130 130 222 222 222 222 222 222 84 84 84 52 52 52
 52 52 194 194 194 194 194 214 214 36 36 36 36 191 215 215 222 222 222 222
 222 222 222 54 54 54 52 52 52 52 52 194 194 194 194 194 194 214 36 36
 36 191 191 215 215 215 222 222 222 222 222 54 54 54 54 52 52 52 52 52
 194 194 194 194 194 194 232 232 36 191 191 191 215 215 215 215 222 222 222 222
 54 54 54 54 54 54 52 52 194 194 194 194 194 194 194 232 232 232 232 191
 191 191 215 215 215 222 222 222 158 54 54 54 54 54 54 54 54 194 194 194
 194 194 142 232 232 232 232 232 232 191 215 215 215 75 75 75 75 54 54 54
 54 54 54 54 54 54 142 142 142 142 142 142 232 232 232 232 232 190 190 190
 190 75 75 75 75 75 10 54 54 54 54 54 54 54 54 142 142 142 142 142
 142 232 232 232 232 232 190 190 190 190 75 75 75 75 75 75 10 54 54 54
 54 54 54 142 142 142 142 142 142 59 59 232 232 232 232 190 190 190 190 75
 75 75 75 75 75 10 10 115 54 54 54 97 142 142 142 142 142 142 59 59
 59 232 22 22 190 190 190 204 204 75 75 75 75 75 10 10 97 97 97 97
 97 97 37 37 37 37 59 59 59 59 59 22 22 22 190 204 204 204 75 75
 75 75 75 10 61 97 97 97 97 97 97 37 37 37 37 37 59 59 59 59
 22 22 22 204 204 204 204 204 203 203 203 203 61 97 97 97 97 97 97 97
 245 37 37 37 37 37 59 59 59 22 22 22 102 204 204 204 204 203 203 203
 203 5 5 5 97 97 97 97 245 245 37 37 37 37 37 37 59 59 102 102
 102 102 100 100 100 100 203 203 203 203 5 5 5 5 97 97 97 245 245 37
 37 37 37 37 37 59 59 102 102 102 100 100 100 100 100 203 203 203 203 5
 5 5 5 5 97 245 245 245 245 37 37 37 186 186 92 92 92 92 92 100
 100 100 100 100 100 189 65 65 65 5 5 5 5 133 133 245 245 245 186 186
 186 186 186 92 92 92 92 92 140 140 100 100 100 100 189 189 65 65 65 65
 5 133 133 133 133 245 245 186 186 186 108 108 92 92 92 92 92 140 140 140
 100 100 189 189 189 65 65 65 65 133 133 133 133 133 245 108 108 108 108 108
 108 92 92 92 92 92 140 140 140 100 189 189 189 189 189 65 65 65 133 133
 133 133 133 108 108 108 108 108 108 108 110 92 92 92 92 140 140 140 244 244
 17 17 189 189 2 2 2 2 133 133 133 133 108 108 108 108 108 108 110 110
 110 110 92 92 140 244 244 244 244 244 17 189 99 2 2 2 2 2 176 133
 133 108 108 108 108 108 96 110 110 110 110 110 110 244 244 244 244 244 244 17
 99 99 2 2 2 2 176 176 176 35 96 96 96 96 96 96 110 110 110 110
 110 244 244 244 244 244 244 244 17 19 19 19 2 2 176 176 176 176 176 96
 96 96 96 96 96 225 225 225 44 110 244 244 244 244 244 244 244 244 19 19
 19 19 19 176 176 176 176 176 96 96 96 96 96 225 225 225 225 225 225 53
 53 53 53 244 244 244 19 19 19 19 19 19 176 176 176 176 176 12 96 96
 96 96 225 225 225 225 225 225 53 53 53 53 130 130 130 19 19 19 19 19
 19 58 58 58 58 12 12 12 12 12 96 225 225 225 225 225 225 53 53 53
 130 130 130 130 19 19 19 19 19 19 58 58 58 58 58 12 12 12 12 125
 125 225 225 225 36 36 53 53 53 130 130 130 130 222 19 19 19 19 58 58
 58 58 58 58 12 12 12 125 125 125 120 120 36 36 36 36 36 130 130 130
 130 222 222 222 222 19 19 58 58 58 58 58 58 58 12 125 125 125 125 120
 36 36 36 36 36 36 130 130 130 222 222 222 222 222 222 54 54 58 58 58
 58 58 58 12 125 125 125 194 120 36 36 36 36 36 36 215 215 222 222 222
 222 222 222 54 54 54 54 52 52 52 58 58 194 194 194 194 194 194 36 36
 36 36 36 191 215 215 215 222 222 222 222 222 54 54 54 54 54 52 52 52
 52 194 194 194 194 194 194 232 36 36 36 191 191 215 215 215 215 222 222 222
 222 54 54 54 54 54 54 54 54 194 194 194 194 194 142 142 232 232 232 232
 191 191 191 215 215 215 222 222 222 222 54 54 54 54 54 54 54 54 142 142
 194 194 194 142 232 232 232 232 232 232 106 106 106 106 106 75 75 10 54 54
 54 54 54 54 54 54 54 142 142 142 142 142 142 232 232 232 232 232 190 190
 190 190 106 75 75 75 10 10 10 54 54 54 54 54 54 142 142 142 142 142
 142 142 232 232 232 232 190 190 190 190 190 75 75 75 75 10 10 10 10 54
 54 54 54 54 142 142 142 142 142 142 142 59 232 232 232 190 190 190 190 190
 75 75 75 75 10 10 10 10 54 54 54 54 97 142 142 142 142 142 142 59
 59 59 232 232 190 190 190 190 190 75 75 75 75 10 10 10 10 97 97 97
 97 97 97 37 37 37 37 37 59 59 59 59 22 22 190 190 190 204 204 75
 75 75 10 10 10 10 97 97 97 97 97 97 97 37 37 37 37 37 59 59
 59 22 22 102 102 204 204 204 204 203 203 203 203 10 97 97 97 97 97 97
 245 245 37 37 37 37 37 37 59 59 102 102 102 102 102 204 204 204 203 203
 203 203 5 5 5 97 97 97 97 245 245 37 37 37 37 37 37 59 59 102
 102 102 102 102 100 100 100 203 203 203 203 5 5 5 5 97 97 97 245 245
 245 37 37 37 37 37 59 102 102 102 102 102 100 100 100 100 100 203 65 65
 65 5 5 5 5 97 245 245 245 245 37 37 37 186 186 92 92 92 92 102
 102 100 100 100 100 100 189 65 65 65 65 5 5 5 245 245 245 245 245 186
 186 186 186 186 92 92 92 92 92 140 140 100 100 100 189 189 189 65 65 65
 65 5 5 133 245 245 245 245 186 186 186 108 108 92 92 92 92 92 140 140
 140 100 100 189 189 189 65 65 65 65 65 133 133 133 245 245 108 108 108 108
 108 108 92 92 92 92 92 140 140 140 100 189 189 189 189 189 65 65 65 65
 133 133 133 245 108 108 108 108 108 108 108 92 92 92 92 92 140 140 140 244
 189 189 189 189 189 99 65 65 65 133 133 133 245 108 108 108 108 108 108 108
 110 92 92 92 92 140 140 244 244 244 189 189 189 99 99 99 99 176 176 176
 176 245 108 108 108 108 108 96 96 110 110 110 92 92 244 244 244 244 244 244
 189 99 99 99 99 99 176 176 176 176 176 96 96 96 96 96 96 96 44 44
 44 44 244 244 244 244 244 244 244 99 99 99 99 99 176 176 176 176 176 176
 96 96 96 96 96 96 225 44 44 44 44 244 244 244 244 244 141 141 141 99
 99 99 99 176 176 176 176 176 176 12 96 96 96 96 225 225 44 44 44 44
 53 53 53 53 53 141 141 141 19 19 19 19 176 176 176 176 176 176 12 12
 96 96 96 225 225 44 44 44 44 53 53 53 53 53 141 141 124 124 124 124
 19 176 176 176 176 176 12 12 12 12 12 12 125 225 44 44 44 44 53 53
 53 53 130 130 130 124 124 124 124 19 19 58 58 58 58 12 12 12 12 12
 125 125 120 120 120 44 36 53 53 53 130 130 130 130 222 124 124 124 19 58
 58 58 58 58 58 12 12 12 125 125 125 120 120 120 36 36 36 53 53 130
 130 130 222 222 222 222 124 58 58 58 58 58 58 58 12 12 125 125 125 125
 120 120 36 36 36 36 36 53 130 130 222 222 222 222 222 54 54 54 58 58
 58 58 58 58 125 125 125 125 125 120 120 36 36 36 36 36 106 106 106 222
 222 222 222 222 54 54 54 54 54 58 58 58 58 125 125 125 125 194 120 120
 36 36 36 36 36 106 106 106 106 222 222 222 222 54 54 54 54 54 54 54
 58 58 194 194 194 194 194 194 232 36 36 36 36 191 106 106 106 106 222 222
 222 222 54 54 54 54 54 54 54 54 194 194 194 194 194 142 142 232 232 232
 36 191 106 106 106 106 106 106 222 222 54 54 54 54 54 54 54 54 54 142
 142 142 142 142 142 142 232 232 232 232 106 106 106 106 106 106 106 10 10 54
 54 54 54 54 54 54 54 54 185 142 142 142 142 142 232 232 232 232 232 190
 190 190 190 106 106 106 10 10 10 10 54 54 54 54 54 54 185 185 142 142
 142 142 142 232 232 232 232 190 190 190 190 190 190 75 75 10 10 10 10 10
 54 54 54 54 54 185 185 142 142 142 142 142 59 232 232 232 190 190 190 190
 190 75 75 75 10 10 10 10 10 10 54 54 54 68 68 68 142 142 142 142
 59 59 59 232 232 190 190 190 190 190 190 75 75 10 10 10 10 10 10 97
 97 97 97 68 68 68 37 37 37 37 59 59 59 22 190 190 190 190 190 204
 75 75 10 10 10 10 10 97 97 97 97 97 245 245 37 37 37 37 37 37
 59 59 102 102 102 102 102 204 204 24 24 24 10 10 10 10 97 97 97 97
 97 245 245 37 37 37 37 37 37 59 102 102 102 102 102 102 102 100 24 24
 24 24 187 187 97 97 97 97 97 97 245 245 37 37 37 37 37 37 37 102
 102 102 102 102 102 100 100 100 24 24 24 65 65 65 5 97 97 97 245 245
 245 245 37 37 37 37 37 37 102 102 102 102 102 102 100 100 100 100 24 65
 65 65 65 5 5 97 97 245 245 245 245 37 37 37 186 186 186 102 102 102
 102 102 100 100 100 100 100 189 65 65 65 65 65 5 5 245 245 245 245 245
 186 186 186 186 186 92 92 92 92 92 140 140 100 100 100 189 189 189 65 65
 65 65 65 5 245 245 245 245 245 186 186 186 108 108 92 92 92 92 92 140
 140 140 100 189 189 189 189 65 65 65 65 65 133 245 245 245 245 245 108 108
 108 108 108 92 92 92 92 92 140 140 140 189 189 189 189 189 189 65 65 65
 65 65 245 245 245 245 108 108 108 108 108 108 92 92 92 92 92 140 140 140
 140 189 189 189 189 189 99 65 65 65 65 176 245 245 245 108 108 108 108 108
 108 92 92 92 92 92 140 140 140 244 189 189 189 189 99 99 99 99 176 176
 176 176 176 108 108 108 108 108 96 96 110 110 110 92 92 244 244 244 244 244
 189 189 99 99 99 99 99 176 176 176 176 176 96 96 96 96 96 96 96 44
 44 44 11 172 244 244 244 244 141 141 141 99 99 99 99 176 176 176 176 176
 176 176 96 96 96 96 96 44 44 44 44 44 172 172 172 53 141 141 141 141
 99 99 99 99 176 176 176 176 176 176 12 12 96 96 96 96 44 44 44 44
 44 172 172 172 53 141 141 141 141 124 124 124 124 176 176 176 176 176 176 12
 12 12 96 96 125 44 44 44 44 44 172 172 53 53 141 141 141 124 124 124
 124 124 176 176 176 176 176 12 12 12 12 12 12 125 125 44 44 44 44 53
 53 53 53 53 141 141 124 124 124 124 124 58 58 58 58 58 12 12 12 12
 12 125 125 120 120 38 38 38 53 53 53 53 130 130 141 124 124 124 124 124
 58 58 58 58 58 12 12 12 12 125 125 125 120 120 38 38 36 36 36 53
 130 130 21 21 21 21 124 124 124 58 58 58 58 58 58 12 12 125 125 125
 120 120 120 38 36 36 36 36 36 106 21 21 21 21 21 21 54 54 54 58
 58 58 58 58 12 125 125 125 125 125 120 120 36 36 36 36 36 106 106 106
 21 21 21 21 21 54 54 54 54 54 58 58 58 12 125 125 125 125 125 120
 120 36 36 36 36 106 106 106 106 106 21 21 21 21 54 54 54 54 54 54
 54 58 12 125 125 125 125 142 142 120 36 36 36 36 106 106 106 106 106 21
 21 21 21 54 54 54 54 54 54 54 54 142 142 194 194 194 142 142 232 36
 36 36 36 106 106 106 106 106 21 21 21 54 54 54 54 54 54 54 54 54
 142 142 142 142 142 142 142 232 232 232 232 106 106 106 106 106 106 106 8 8
 8 121 54 54 54 54 54 54 185 185 185 185 142 142 142 142 232 232 232 190
 190 190 190 106 106 106 106 10 10 10 10 54 54 54 54 54 185 185 185 185
 185 142 142 142 142 232 232 232 190 190 190 190 190 190 75 10 10 10 10 10
 10 54 54 54 54 185 185 185 185 185 142 142 142 59 232 232 190 190 190 190
 190 190 190 223 10 10 10 10 10 10 10 54 54 68 68 68 68 68 68 142
 142 37 59 59 232 190 190 190 190 190 190 190 223 10 10 10 10 10 10 10
 97 97 97 68 68 68 68 68 208 37 37 59 59 114 114 114 114 114 190 190
 223 24 24 24 10 10 10 10 10 97 97 97 97 68 68 208 208 234 37 234
 37 59 102 102 102 102 114 114 114 24 24 24 24 24 187 187 187 97 97 97
 97 245 245 245 208 234 234 234 234 37 59 102 102 102 102 102 102 102 24 24
 24 24 24 187 187 187 97 97 97 97 245 245 245 245 234 234 234 234 37 37
 102 102 102 102 102 102 100 100 24 24 24 24 187 187 65 65 97 97 97 245
 245 245 245 234 234 234 37 37 37 102 102 102 102 102 102 100 100 100 24 24
 24 65 65 65 65 5 97 245 245 245 245 245 245 37 37 186 186 186 102 102
 102 102 102 102 100 100 100 189 189 189 65 65 65 65 65 97 245 245 245 245
 245 245 186 186 186 186 92 92 92 92 138 138 138 100 100 189 189 189 189 65
 65 65 65 65 65 245 245 245 245 245 245 186 186 108 108 92 92 92 92 138
 138 138 138 100 189 189 189 189 65 65 65 65 65 65 245 245 245 245 245 108
 108 108 108 108 92 92 92 92 138 138 138 138 189 189 189 189 189 189 65 65
 65 65 65 245 245 245 245 108 108 108 108 108 108 92 92 92 92 138 138 138
 138 189 189 189 189 189 189 99 65 65 65 176 176 245 245 14 14 108 108 108
 108 108 92 92 92 92 138 138 138 138 189 189 189 189 189 99 99 99 99 176
 176 176 176 176 14 14 14 14 108 96 96 11 11 11 11 11 138 138 244 244
 27 27 27 99 99 99 99 99 176 176 176 176 176 240 240 240 96 96 96 96
 11 44 11 11 11 172 244 141 141 141 27 27 99 99 99 99 176 176 176 176
 176 176 240 240 240 96 96 96 44 44 44 44 172 172 172 172 141 141 141 141
 27 99 99 99 99 176 176 176 176 176 176 12 12 12 96 96 96 44 44 44
 44 172 172 172 172 141 141 141 141 141 124 124 99 3 176 176 176 176 176 176
 12 12 12 12 96 125 220 220 220 220 172 172 172 172 141 141 141 141 124 124
 124 124 124 176 176 176 176 176 12 12 12 12 12 12 125 220 220 220 220 220
 172 53 53 53 141 141 141 124 124 124 124 124 176 176 176 58 58 12 12 12
 12 12 125 125 120 120 38 38 38 53 53 53 53 130 141 141 124 124 124 124
 124 58 58 58 58 58 12 12 12 12 125 125 125 120 120 38 38 38 36 36
 53 130 21 21 21 21 21 124 124 124 58 58 58 58 58 12 12 12 125 125
 125 125 120 120 38 38 36 36 36 106 106 21 21 21 21 21 21 124 54 54
 54 58 58 58 58 12 125 125 125 125 125 120 120 120 36 36 36 106 106 106
 106 21 21 21 21 21 121 121 54 54 54 58 58 58 12 125 125 125 125 125
 120 120 36 36 36 36 106 106 106 106 106 21 21 21 21 121 121 54 54 54
 54 54 58 12 125 125 125 125 142 120 120 36 36 36 106 106 106 106 106 106
 21 21 21 121 121 121 54 54 54 54 54 54 185 185 125 125 125 142 142 232
 36 36 36 106 106 106 106 106 106 21 21 21 121 121 121 54 54 54 54 54
 185 185 185 142 142 142 142 142 105 105 105 106 106 106 106 106 106 106 106 8
 8 8 121 121 121 54 54 54 185 185 185 185 185 185 185 142 142 232 232 232
 190 190 190 106 106 106 106 8 8 8 8 8 8 54 54 54 54 185 185 185
 185 185 185 185 142 142 232 232 232 190 190 190 190 190 223 223 10 10 10 10
 10 10 10 54 54 185 185 185 185 185 185 185 185 142 59 232 114 114 114 114
 114 190 190 223 223 10 10 10 10 10 10 10 10 242 68 68 68 68 68 68
 68 142 37 59 114 114 114 114 114 114 114 114 223 223 223 10 10 10 10 10
 10 10 97 68 68 68 68 68 68 208 208 37 59 114 114 114 114 114 114 114
 114 223 223 24 24 24 10 10 10 10 97 97 97 68 68 68 208 208 208 234
 234 234 234 114 114 114 114 114 114 114 223 24 24 24 24 187 187 187 187 97
 97 97 245 245 208 208 208 234 234 234 234 234 102 102 102 102 102 114 114 24
 24 24 24 24 187 187 187 187 97 97 245 245 245 245 208 234 234 234 234 234
 234 102 102 102 102 102 102 102 24 24 24 24 24 187 187 187 65 97 97 245
 245 245 245 245 234 234 234 37 163 163 102 102 102 102 102 102 102 100 24 24
 24 24 187 65 65 65 65 97 245 245 245 245 245 245 234 234 163 163 163 102
 102 102 102 102 102 100 100 24 24 24 24 65 65 65 65 65 245 245 245 245
 245 245 245 163 163 226 226 226 138 138 138 138 138 138 138 100 189 189 189 189
 65 65 65 65 65 65 245 245 245 245 245 245 186 186 108 108 92 92 138 138
 138 138 138 138 138 189 189 189 189 65 65 65 65 65 65 245 245 245 245 245
 245 108 108 108 108 92 92 138 138 138 138 138 138 138 189 189 189 189 189 65
 65 65 65 65 245 245 245 245 14 14 14 108 108 108 11 11 11 138 138 138
 138 138 138 189 189 189 189 189 99 65 65 65 65 176 245 14 14 14 14 14
 14 108 11 11 11 11 11 138 138 138 138 138 189 189 189 189 99 99 99 99
 99 176 176 176 14 14 14 14 14 14 96 11 11 11 11 11 11 11 138 138
 27 27 27 27 27 99 99 99 99 176 176 176 176 240 240 240 240 14 14 96
 11 11 11 11 11 11 11 11 141 141 141 27 27 27 99 99 99 99 176 176
 176 176 156 240 240 240 240 14 96 11 11 11 11 11 172 172 172 141 141 141
 141 27 27 99 99 3 3 176 176 176 156 156 240 240 240 240 96 220 220 220
 220 220 172 172 172 172 141 141 141 141 27 27 99 3 3 3 176 176 176 156
 156 12 12 12 12 12 220 220 220 220 220 220 172 172 172 141 141 141 141 124
 124 124 124 3 3 176 176 176 156 156 12 12 12 12 12 125 220 220 220 220
 220 172 172 53 141 141 141 141 124 124 124 124 124 3 176 176 176 12 12 12
 12 12 12 125 125 120 220 220 220 220 220 32 32 32 141 141 141 124 124 124
 124 124 3 58 58 58 58 12 12 12 12 125 125 125 120 120 38 38 38 36
 106 32 32 21 21 21 21 21 124 124 124 58 58 58 58 58 12 12 12 125
 125 125 125 120 120 38 38 36 36 106 106 106 21 21 21 21 21 21 121 121
 121 54 58 58 58 58 12 125 125 125 125 125 120 120 120 36 36 36 106 106
 106 106 21 21 21 21 21 121 121 121 54 54 58 58 58 12 125 125 125 125
 125 120 120 120 36 36 106 106 106 106 106 106 21 21 21 21 121 121 121 121
 54 54 54 54 12 125 125 125 125 125 120 120 105 36 106 106 106 106 106 106
 106 21 21 21 121 121 121 121 121 54 54 54 185 185 185 185 125 125 142 142
 105 105 105 106 106 106 106 106 106 106 21 21 8 121 121 121 121 54 54 54
 54 185 185 185 185 185 142 142 105 105 105 105 105 83 83 83 83 106 106 8
 8 8 8 8 121 121 82 82 82 185 185 185 185 185 185 185 142 142 118 118
 118 105 83 83 83 83 106 106 8 8 8 8 8 8 121 82 82 185 185 185
 185 185 185 185 185 142 118 118 118 114 114 114 114 114 154 223 223 223 8 8
 8 8 8 8 82 242 185 185 185 185 185 185 185 185 142 210 114 114 114 114
 114 114 114 154 223 223 223 10 10 10 10 10 10 242 242 242 60 68 68 68
 68 68 185 37 210 114 114 114 114 114 114 114 154 223 223 223 24 10 10 10
 10 10 242 242 242 60 68 68 68 68 208 208 37 210 114 114 114 114 114 114
 114 154 223 223 223 24 24 187 187 187 187 242 242 242 242 208 208 208 208 208
 208 234 234 114 114 114 114 114 114 114 154 223 223 24 24 24 187 187 187 187
 242 242 242 242 208 208 208 208 208 234 234 234 234 165 165 114 114 114 114 154
 223 24 24 24 24 187 187 187 187 147 147 147 147 245 208 208 208 234 234 163
 163 163 165 165 165 102 102 102 154 223 24 24 24 24 187 187 187 65 97 147
 245 245 245 245 163 163 163 163 163 163 163 165 165 165 165 102 102 102 24 24
 24 24 24 187 187 65 65 65 201 201 245 245 245 163 163 163 163 163 163 163
 165 165 165 165 138 138 138 24 24 24 24 24 65 65 65 65 65 201 201 201
 245 245 163 163 163 163 226 226 226 138 138 138 138 138 138 138 138 189 189 189
 189 65 65 65 65 65 201 201 201 245 245 245 226 226 226 226 226 226 138 138
 138 138 138 138 138 138 189 189 189 189 65 65 65 65 65 201 201 201 245 245
 245 226 226 226 226 226 11 138 138 138 138 138 138 138 138 189 189 189 189 189
 65 65 65 65 201 201 201 245 14 14 14 226 226 226 11 11 11 11 138 138
 138 138 138 138 189 189 189 189 189 99 65 65 65 176 201 201 14 14 14 14
 14 14 11 11 11 11 11 11 138 138 138 138 138 27 27 27 27 99 99 99
 99 176 176 176 156 14 14 14 14 14 14 11 11 11 11 11 11 11 11 138
 138 27 27 27 27 27 99 99 99 99 176 176 176 156 240 240 240 14 14 14
 11 11 11 11 11 11 11 11 138 141 141 27 27 27 27 99 99 99 3 15
 176 156 156 156 240 240 240 240 14 25 25 11 11 11 11 11 11 172 141 141
 137 27 27 27 99 3 3 3 15 176 156 156 156 240 240 240 240 14 25 25
 25 25 11 11 11 172 172 141 141 137 137 27 27 3 3 3 3 15 176 156
 156 156 156 12 12 12 12 220 220 220 220 220 220 172 172 172 141 137 137 137
 124 124 124 3 3 3 3 15 156 156 156 12 12 12 12 12 125 220 220 220
 220 220 220 32 32 32 137 137 137 124 124 124 124 3 3 111 111 156 156 12
 12 12 12 12 125 125 220 220 220 220 220 220 32 32 32 32 137 137 124 124
 124 124 124 111 111 111 111 58 12 12 12 12 125 125 125 220 220 220 220 220
 220 32 32 32 32 196 196 196 196 124 124 121 121 111 111 58 26 26 12 12
 125 125 125 125 120 120 38 38 36 36 106 106 106 1 196 196 196 196 196 121
 121 121 82 82 58 58 26 12 125 125 125 125 125 120 120 120 105 105 106 106
 106 106 1 196 196 196 196 196 121 121 121 82 82 82 58 26 12 125 125 125
 125 125 120 105 105 105 105 106 106 106 106 106 196 196 196 196 121 121 121 121
 82 82 82 82 82 185 185 125 125 125 125 105 105 105 105 105 83 83 83 106
 106 106 196 196 196 121 121 121 121 82 82 82 82 185 185 185 185 185 185 105
 105 105 105 105 105 83 83 83 83 106 106 196 196 8 121 121 121 121 82 82
 82 82 185 185 185 185 185 185 105 105 105 105 105 105 105 83 83 83 83 83
 8 8 8 8 121 121 82 82 82 82 185 185 185 185 185 185 185 118 118 118
 118 118 105 105 83 83 83 83 83 8 8 8 8 8 8 82 82 82 82 185
 185 185 185 185 185 185 118 118 118 118 118 105 114 83 83 154 154 223 223 8
 8 8 8 8 8 82 242 60 60 185 185 185 185 185 185 210 210 210 114 114
 114 114 114 154 154 154 223 223 223 8 8 8 8 8 242 242 242 60 60 60
 68 68 185 185 210 210 210 114 114 114 114 114 154 154 223 223 223 223 223 10
 10 10 242 242 242 242 60 60 60 68 68 208 208 210 210 210 114 114 114 114
 114 154 154 223 223 223 223 24 187 187 187 242 242 242 242 242 60 208 208 208
 208 208 163 163 210 114 114 114 114 114 154 154 223 223 223 24 24 187 187 187
 187 147 147 242 242 60 208 208 208 208 163 163 163 163 165 165 114 114 114 114
 154 223 24 24 24 24 187 187 187 180 147 147 147 147 147 208 208 163 163 163
 163 163 163 165 165 165 165 165 102 154 223 24 24 24 24 187 187 180 180 147
 147 147 147 147 163 163 163 163 163 163 163 163 165 165 165 165 165 165 154 24
 24 24 24 24 187 180 180 180 180 201 201 201 201 163 163 163 163 163 163 163
 163 165 165 165 165 165 165 138 228 228 24 24 24 65 180 180 180 180 201 201
 201 201 163 163 163 163 163 226 163 163 165 165 165 138 138 138 138 228 228 177
 177 177 65 65 65 65 65 201 201 201 201 163 163 226 226 226 226 226 226 138
 138 138 138 138 138 138 228 228 177 177 177 177 65 65 65 65 201 201 201 201
 163 226 226 226 226 226 226 11 138 138 138 138 138 138 138 228 228 177 177 177
 177 65 65 65 65 201 201 201 201 14 14 226 226 226 226 11 11 11 11 11
 138 138 138 138 228 228 177 184 177 177 177 65 65 15 201 201 201 14 14 14
 14 14 14 11 11 11 11 11 11 11 138 138 138 228 184 184 184 184 184 99
 99 15 15 15 15 156 14 14 14 14 14 14 11 11 11 11 11 11 11 11
 138 138 27 27 27 27 27 27 99 99 15 15 15 15 156 240 240 240 14 14
 14 11 11 11 11 11 11 11 11 11 137 137 27 27 27 27 27 99 3 15
 15 15 15 156 156 240 240 240 14 14 25 25 25 11 11 11 11 11 11 137
 137 137 137 27 27 27 3 3 15 15 15 156 156 156 240 240 240 240 14 25
 25 25 25 25 11 11 11 137 137 137 137 137 27 27 3 3 3 3 15 15
 156 156 156 156 216 216 216 216 25 25 25 25 25 25 11 32 32 32 137 137
 137 137 124 3 3 3 3 15 15 156 156 156 216 216 216 216 216 220 220 220
 220 220 220 220 32 32 32 137 137 137 137 124 3 3 3 111 111 111 111 156
 216 216 216 216 216 125 125 220 220 220 220 220 32 32 32 32 32 32 137 196
 124 124 124 111 111 111 111 111 26 26 216 216 216 216 125 125 220 220 220 220
 220 32 32 32 32 32 1 196 196 196 196 124 111 111 111 111 26 26 26 26
 216 216 125 125 125 220 220 220 220 220 32 32 32 32 1 1 196 196 196 196
 196 121 82 82 82 26 26 26 26 26 125 125 125 125 120 105 105 105 105 83
 83 106 106 1 1 196 196 196 196 121 121 82 82 82 82 26 26 26 26 125
 125 125 105 105 105 105 105 105 83 83 83 83 237 1 196 196 196 121 121 121
 82 82 82 82 82 82 26 185 125 125 125 105 105 105 105 105 105 83 83 83
 83 83 237 196 196 196 121 121 121 82 82 82 82 82 82 185 185 185 185 185
 105 105 105 105 105 105 83 83 83 83 83 237 237 196 8 121 121 121 82 82
 82 82 82 185 185 185 185 185 185 118 118 118 118 105 105 105 83 83 83 83
 83 83 8 8 8 121 121 82 82 82 82 82 170 170 170 170 170 170 118 118
 118 118 118 105 105 83 83 83 83 83 8 8 8 8 8 8 82 82 82 82
 60 170 170 170 170 170 170 118 118 118 118 118 118 105 114 154 154 154 223 223
 223 8 8 8 8 82 82 82 60 60 60 170 170 170 170 170 210 210 210 210
 210 114 114 114 154 154 154 223 223 223 223 8 8 8 242 242 242 242 60 60
 60 60 60 185 185 210 210 210 210 210 114 114 114 154 154 223 223 223 223 223
 223 195 195 242 242 242 242 60 60 60 60 60 208 208 210 210 210 210 210 114
 114 114 154 154 223 223 223 223 223 187 187 187 242 242 242 242 242 60 60 60
 60 208 163 163 210 210 210 210 114 114 114 154 154 223 223 223 223 24 187 187
 187 147 147 147 242 242 60 60 60 208 163 163 163 163 210 165 165 165 114 114
 154 154 223 223 24 24 24 187 187 180 180 147 147 147 147 147 60 163 163 163
 163 163 163 163 165 165 165 165 165 154 154 223 24 24 24 24 187 180 180 180
 147 147 147 147 147 163 163 163 163 163 163 163 163 165 165 165 165 165 165 154
 56 24 24 24 24 187 180 180 180 180 201 201 201 201 163 163 163 163 163 163
 163 163 165 165 165 165 165 165 228 228 228 228 24 24 180 180 180 180 20 201
 201 201 201 163 163 163 163 163 163 163 165 165 165 165 165 138 138 228 228 228
 228 177 177 177 180 180 180 20 201 201 201 201 163 163 226 226 226 226 226 165
 165 165 138 138 138 138 228 228 228 177 177 177 177 65 65 20 20 20 201 201
 201 163 226 226 226 226 226 226 181 11 138 138 138 138 138 228 228 228 177 177
 177 177 177 65 20 20 20 20 20 20 20 226 226 226 226 226 181 181 11 11
 11 138 138 138 228 228 228 177 177 177 177 177 177 15 15 236 236 236 20 14
 14 14 14 14 11 11 11 11 11 11 11 11 138 228 228 228 184 184 184 184