# vtk DataFile Version 2.0
Data set from ImportExport Version 6.5.171.b0b162591
ASCII

DATASET RECTILINEAR_GRID
DIMENSIONS 30 30 30
X_COORDINATES 30 float
-1.250000 1.250000 3.750000 6.250000 8.750000 11.250000 13.750000 16.250000 18.750000 21.250000 23.750000 26.250000 28.750000 31.250000 33.750000 36.250000 38.750000 41.250000 43.750000 46.250000 48.750000 
51.250000 53.750000 56.250000 58.750000 61.250000 63.750000 66.250000 68.750000 71.250000 
Y_COORDINATES 30 float
-1.250000 1.250000 3.750000 6.250000 8.750000 11.250000 13.750000 16.250000 18.750000 21.250000 23.750000 26.250000 28.750000 31.250000 33.750000 36.250000 38.750000 41.250000 43.750000 46.250000 48.750000 
51.250000 53.750000 56.250000 58.750000 61.250000 63.750000 66.250000 68.750000 71.250000 
Z_COORDINATES 30 float
-1.250000 1.250000 3.750000 6.250000 8.750000 11.250000 13.750000 16.250000 18.750000 21.250000 23.750000 26.250000 28.750000 31.250000 33.750000 36.250000 38.750000 41.250000 43.750000 46.250000 48.750000 
51.250000 53.750000 56.250000 58.750000 61.250000 63.750000 66.250000 68.750000 71.250000 
CELL_DATA 24389
SCALARS FeatureIds int 1
LOOKUP_TABLE default
 172 172 207 207 98 98 98 55 55 55 55 55 55 71 71 71 71 51 51 51
 223 223 223 223 223 223 172 172 172 172 98 98 98 98 98 98 55 55 55 55
 55 55 71 71 71 71 51 51 51 51 223 223 223 223 223 223 172 172 172 98
 98 98 98 98 98 55 55 55 55 55 200 71 71 71 71 244 244 30 30 30
 223 223 223 223 223 223 172 243 243 98 98 98 98 98 55 55 55 200 200 200
 200 71 71 244 244 244 30 30 30 30 223 223 223 223 223 172 243 243 243 32
 32 98 32 55 55 200 200 200 200 200 200 88 244 244 244 244 30 30 30 30
 128 128 128 128 128 243 243 243 32 32 32 32 32 60 200 200 200 200 200 88
 88 88 244 244 244 30 30 30 30 128 128 128 128 128 243 243 243 32 32 32
 32 32 60 60 200 200 200 200 88 88 88 88 244 244 30 30 30 128 128 128
 128 128 128 243 243 243 32 32 32 32 32 60 60 105 105 105 105 88 88 88
 181 181 181 30 77 77 77 128 128 128 128 128 243 243 243 32 32 32 32 60
 60 60 105 105 105 105 84 84 84 181 181 181 181 77 77 77 77 77 77 86
 86 86 86 243 32 32 32 32 60 60 60 105 105 105 84 84 84 84 181 181
 181 181 38 77 77 77 77 77 86 86 86 86 86 86 32 32 32 60 60 60
 105 105 105 84 84 84 181 181 181 181 181 77 77 77 77 77 202 86 86 86
 86 86 49 49 16 16 16 41 41 41 105 105 181 181 181 181 181 181 181 181
 181 77 77 77 202 202 202 86 86 86 86 49 49 16 16 16 41 41 41 41
 203 203 181 181 181 181 181 181 181 181 77 77 202 202 202 202 202 202 121 121
 49 49 16 16 16 41 41 41 41 203 203 203 203 181 181 181 181 181 181 100
 100 202 202 202 202 202 121 121 121 49 16 16 16 16 168 168 41 41 203 203
 203 203 203 203 181 181 181 181 100 100 217 217 217 217 217 121 121 121 49 16
 16 16 168 168 168 168 168 203 203 203 203 203 203 203 203 233 233 100 100 217
 217 217 217 217 121 121 121 121 16 16 168 168 168 168 168 168 45 45 45 45
 203 203 203 203 233 233 233 100 217 217 217 217 217 121 121 121 121 168 168 168
 168 168 168 168 168 45 45 45 45 45 45 45 233 233 233 233 233 217 217 217
 217 217 156 156 156 156 168 168 168 168 168 168 168 168 45 45 45 45 45 45
 45 233 233 233 233 233 233 217 217 217 156 156 156 156 156 168 168 168 168 168
 168 168 226 45 45 45 45 45 45 45 233 233 233 233 233 233 188 34 156 156
 156 156 156 156 156 168 168 168 168 168 168 226 226 45 45 45 45 45 233 233
 233 233 233 233 233 188 34 156 156 156 156 4 4 4 168 168 168 85 85 85
 85 103 103 103 103 103 103 233 233 27 99 233 233 233 182 182 182 182 182 182
 4 4 4 53 53 85 85 85 85 85 103 103 103 103 103 103 103 99 99 99
 99 99 182 182 182 182 182 182 182 4 4 53 53 53 53 85 85 85 85 103
 103 103 103 103 103 103 99 99 99 99 99 182 182 182 182 182 182 182 182 207
 53 53 53 53 53 85 85 85 103 103 103 103 103 103 103 103 99 99 99 182
 182 182 182 182 182 182 182 207 207 207 53 53 53 53 53 53 53 169 169 169
 103 103 103 103 103 143 143 143 143 172 172 172 182 182 172 207 207 207 207 53
 53 53 53 53 53 209 169 169 169 169 169 169 169 169 143 143 143 143 235 235
 172 172 172 172 207 207 207 207 207 53 53 53 53 53 209 169 169 169 169 169
 169 169 169 143 143 143 143 235 235 172 172 172 172 207 207 207 207 98 98 53
 55 55 55 55 169 169 169 169 169 169 169 169 223 223 223 143 235 172 172 172
 172 172 172 98 98 98 98 98 98 55 55 55 55 71 71 71 71 71 71 51
 215 215 215 215 223 223 172 172 172 172 172 8 98 98 98 98 98 98 55 55
 55 55 71 71 71 71 71 71 51 215 215 215 215 223 223 223 223 172 172 172
 8 98 98 98 98 98 98 55 55 55 200 200 71 71 71 71 244 244 30 30
 30 30 223 223 223 223 223 172 149 87 98 98 98 98 98 98 55 200 200 200
 200 200 71 71 71 244 244 30 30 30 30 30 223 223 223 149 149 149 243 243
 98 98 98 32 91 200 200 200 200 200 200 88 88 88 88 244 30 30 30 30
 30 128 128 128 149 149 243 243 243 32 32 32 32 91 37 200 200 200 200 200
 88 88 88 88 244 30 30 30 30 30 128 128 128 128 149 243 243 243 32 32
 32 32 91 37 37 200 200 200 200 88 88 88 88 88 30 30 30 77 77 77
 128 128 149 149 243 243 243 32 32 32 32 91 37 37 37 37 105 105 88 88
 88 88 181 192 192 77 77 77 77 77 77 149 149 243 243 243 32 32 32 32
 91 37 37 37 37 105 84 84 84 84 181 181 192 192 77 77 77 77 77 77
 77 86 86 86 243 32 32 32 32 91 37 37 37 37 105 84 84 84 84 181
 181 181 192 77 77 77 77 77 77 77 86 86 86 86 32 32 32 32 91 37
 37 37 37 84 84 84 84 181 181 181 181 181 77 77 77 77 77 77 202 86
 86 86 86 49 49 16 16 16 37 41 37 37 84 84 181 181 181 181 181 181
 181 77 77 77 77 77 202 202 202 202 86 49 49 49 16 16 16 41 41 41
 41 181 181 181 181 181 181 181 181 181 181 77 77 77 202 202 202 202 202 49
 49 49 49 16 16 16 41 41 41 41 203 203 203 203 181 181 181 181 181 181
 100 100 100 202 202 202 202 217 49 49 49 49 16 16 16 168 168 168 168 203
 203 203 203 203 203 181 181 181 100 100 100 100 100 217 217 217 217 121 49 49
 16 16 16 16 168 168 168 168 203 203 203 153 203 203 203 203 203 7 100 100
 100 100 217 217 217 217 121 49 49 16 16 168 168 168 168 168 168 45 45 45
 45 203 203 203 203 7 7 7 100 100 100 217 217 217 121 121 121 49 168 168
 168 168 168 168 168 168 45 45 45 45 45 45 45 45 7 233 7 100 100 100
 217 217 217 156 156 156 156 168 168 168 168 168 168 168 226 226 45 45 45 45
 45 45 233 99 99 99 233 188 100 217 34 156 156 156 4 4 168 168 168 168
 168 168 168 226 226 226 45 45 45 45 45 99 99 99 99 99 188 188 34 34
 34 156 4 4 4 4 168 168 168 168 168 168 226 226 226 226 45 45 45 99
 99 99 99 99 99 188 188 34 34 34 182 4 4 4 4 4 168 139 139 139
 139 226 226 226 103 103 103 103 99 99 99 99 99 99 99 34 34 34 182 182
 182 4 4 4 4 139 139 139 139 139 139 103 103 103 103 103 103 103 99 99
 99 99 99 99 182 182 182 182 182 182 4 4 4 53 53 53 139 139 139 139
 103 103 103 103 103 103 103 99 99 99 99 99 182 182 182 182 182 182 182 4
 4 53 53 53 53 53 53 139 139 103 103 103 103 103 103 103 99 99 99 99
 99 182 182 182 182 182 182 182 207 207 53 53 53 53 53 53 53 53 209 169
 169 169 103 103 103 103 99 99 143 143 172 172 172 182 182 172 172 207 207 53
 53 53 53 53 53 209 209 209 169 169 169 169 169 169 169 143 143 143 143 172
 172 172 172 172 172 172 207 207 207 53 53 53 53 53 209 209 209 169 169 169
 169 169 169 169 215 215 143 143 172 172 172 172 172 172 172 207 207 207 98 98
 53 55 55 209 209 209 169 169 169 169 169 169 215 215 215 215 143 172 172 172
 172 172 172 8 8 98 98 98 98 98 55 55 55 55 71 71 71 71 71 71
 71 215 215 215 215 215 223 172 172 172 172 8 8 8 98 98 98 98 98 55
 55 55 200 71 71 71 71 71 71 71 215 215 215 215 215 223 223 172 172 172
 8 8 8 98 98 98 98 98 55 55 200 200 200 71 71 71 71 71 244 215
 215 30 215 215 223 223 223 149 172 149 87 87 98 98 98 98 98 200 200 200
 200 200 200 88 88 88 88 244 30 30 30 30 30 223 223 149 149 149 149 87
 87 98 98 98 91 91 37 200 200 200 200 88 88 88 88 88 88 30 30 30
 30 30 149 149 149 149 149 149 149 32 32 32 32 91 91 37 37 200 200 200
 88 88 88 88 88 88 30 30 30 30 77 77 149 149 149 149 149 149 32 32
 32 32 91 91 37 37 37 37 200 88 88 88 88 88 88 192 30 77 77 77
 77 77 149 149 149 149 243 32 32 32 32 91 91 37 37 37 37 37 88 88
 88 88 88 192 192 192 77 77 77 77 77 77 149 149 243 243 32 32 32 32
 32 91 37 37 37 37 37 84 84 84 84 181 192 192 192 77 77 77 77 77
 77 77 149 86 86 32 32 32 32 91 91 37 37 37 37 37 84 84 84 84
 181 192 192 192 77 77 77 77 77 77 77 77 86 86 86 32 32 32 91 91
 37 37 37 37 37 84 84 84 181 181 181 192 192 77 77 77 77 77 77 77
 202 86 86 49 49 49 16 16 16 37 37 37 37 18 181 181 181 181 181 181
 181 181 77 216 216 216 77 202 202 202 202 49 49 49 49 16 16 16 16 41
 41 18 18 181 181 181 181 181 181 181 181 77 216 216 216 202 202 202 202 202
 49 49 49 49 16 16 16 16 41 41 203 203 203 203 203 181 181 181 181 181
 77 216 100 100 100 202 202 202 217 49 49 49 49 16 16 16 168 168 168 203
 203 203 203 203 203 203 181 181 181 7 100 100 100 100 100 217 217 217 49 49
 49 49 16 16 168 168 168 168 168 203 203 203 203 203 203 203 203 7 7 7
 100 100 100 217 217 217 217 49 49 49 49 16 168 168 168 168 168 168 45 45
 45 45 45 203 203 7 7 7 7 100 100 100 100 217 217 217 49 49 49 168
 168 168 168 168 168 168 226 226 45 45 45 45 45 45 7 7 7 7 100 100
 100 100 217 217 156 156 4 168 168 168 168 168 168 168 168 226 226 226 45 45
 45 45 45 99 99 99 99 99 230 230 188 34 34 4 4 4 4 4 168 168
 168 168 168 168 226 226 226 226 45 45 45 45 99 99 99 99 99 188 188 188
 34 34 4 4 4 4 4 168 168 168 168 168 226 226 226 226 226 226 45 45
 99 99 99 99 99 99 230 230 34 34 34 182 4 4 4 4 4 168 139 139
 139 139 226 226 226 67 67 67 67 99 99 99 99 99 99 99 34 34 34 34
 182 4 4 4 4 4 139 139 139 139 139 139 226 103 103 67 67 67 99 99
 99 99 99 99 99 34 34 34 182 182 182 4 4 4 53 53 139 139 139 139
 139 139 103 103 103 103 67 67 99 99 99 99 99 99 182 182 182 182 182 182
 4 4 53 53 53 53 53 139 139 139 139 67 67 67 67 67 67 99 99 99
 99 99 99 182 182 182 182 182 182 207 207 53 53 53 53 53 53 139 139 209
 67 67 67 67 67 67 99 99 99 99 145 145 172 172 182 182 172 172 172 207
 53 53 53 53 53 53 209 209 209 169 169 169 169 169 169 169 145 145 145 145
 145 172 172 172 172 172 172 172 207 53 53 53 53 53 53 209 209 209 169 169
 169 169 169 169 215 215 145 145 145 145 172 172 172 172 172 172 172 207 98 98
 98 53 53 209 209 209 209 169 169 169 169 169 169 215 215 215 215 145 145 172
 172 172 172 8 8 8 8 98 98 98 44 44 201 201 201 201 71 71 71 71
 71 215 215 215 215 215 215 145 145 172 172 8 8 8 8 8 98 98 98 98
 44 201 201 201 201 71 71 71 71 71 215 215 215 215 215 215 145 145 172 172
 8 8 8 8 8 98 98 98 98 201 201 201 201 201 71 71 71 88 88 215
 215 215 215 215 215 215 149 149 149 8 149 87 87 8 98 98 98 37 37 201
 201 201 201 88 88 88 88 88 88 215 215 215 215 215 215 149 149 149 149 149
 87 87 191 191 191 91 37 37 37 200 201 201 88 88 88 88 88 88 30 30
 30 30 30 149 149 149 149 149 149 149 87 191 191 191 91 91 37 37 37 37
 88 88 88 88 88 88 88 88 30 30 77 77 149 149 149 149 149 149 149 191
 191 191 191 91 91 37 37 37 37 37 88 88 88 88 88 88 88 192 77 77
 77 77 149 149 149 149 149 149 191 191 191 191 91 91 37 37 37 37 37 88
 88 88 88 88 192 192 192 77 77 77 77 77 149 149 149 149 149 191 191 191
 191 91 91 37 37 37 37 37 88 88 84 88 192 192 192 192 77 77 77 77
 77 77 149 149 149 57 57 57 191 191 91 91 37 37 37 37 37 84 84 84
 84 192 192 192 192 77 77 77 77 77 77 77 149 86 57 57 57 57 191 91
 91 37 37 37 37 37 84 84 181 181 181 192 192 192 77 77 77 77 77 77
 77 202 86 57 57 57 57 57 57 57 37 37 37 18 18 18 28 181 181 181
 181 192 192 77 216 216 216 77 77 202 202 202 49 49 49 49 16 16 16 37
 37 18 18 18 18 18 181 181 181 181 181 192 77 216 216 216 202 202 202 202
 202 49 49 49 49 16 16 16 16 168 18 18 18 18 18 203 181 181 181 181
 181 7 216 216 100 100 100 202 202 217 49 49 49 49 16 16 16 168 168 168
 18 18 18 203 203 203 203 181 181 7 7 100 100 100 100 100 100 217 217 49
 49 49 49 152 16 168 168 168 168 18 18 203 203 203 203 203 203 7 7 7
 7 100 100 100 100 100 217 217 49 49 49 49 168 168 168 168 168 168 62 62
 62 45 45 45 203 203 7 7 7 7 100 100 100 100 100 217 217 49 49 49
 168 168 168 168 168 168 168 62 62 226 45 45 45 45 45 7 7 7 7 7
 100 100 100 100 217 4 4 4 4 168 168 168 168 168 168 168 226 226 226 226
 45 45 45 45 7 7 7 7 7 230 230 230 34 34 4 4 4 4 4 168
 168 168 168 168 226 226 226 226 226 226 45 45 246 99 99 99 99 99 188 188
 188 34 34 4 4 4 4 4 248 248 248 168 139 226 226 226 226 226 226 45
 246 246 99 99 99 99 99 230 230 34 34 34 34 4 4 4 4 248 248 248
 139 139 139 226 226 226 67 67 67 67 246 99 99 99 99 99 99 34 34 34
 34 182 4 4 4 4 248 248 139 139 139 139 139 226 67 67 67 67 67 246
 99 99 99 99 99 99 34 34 34 34 182 4 4 4 4 248 248 139 139 139
 139 139 139 67 67 67 67 67 246 99 99 99 99 99 99 34 34 34 182 182
 182 4 4 159 159 159 159 139 139 139 139 139 67 67 67 67 67 67 99 99
 99 99 99 145 34 34 182 182 182 182 4 4 159 159 159 159 159 139 139 139
 139 67 67 67 67 67 67 99 99 145 145 145 145 145 172 182 182 172 172 172
 159 159 159 159 159 159 159 209 209 209 169 169 169 169 169 20 20 145 145 145
 145 145 145 172 172 172 172 172 172 159 159 159 159 159 159 159 209 209 209 209
 169 169 169 169 20 20 145 145 145 145 145 145 172 172 172 172 8 8 8 98
 98 159 159 159 209 209 209 209 209 169 169 169 169 20 215 215 215 145 145 145
 145 172 172 172 8 8 8 8 8 98 44 44 44 44 201 201 201 71 71 71
 71 20 215 215 215 215 215 145 145 145 172 172 8 8 8 8 8 8 98 98
 44 44 201 201 201 201 201 71 71 71 174 215 215 215 215 215 215 145 221 221
 8 8 8 8 8 8 98 98 98 44 201 201 201 201 201 201 88 88 88 174
 174 215 215 215 215 215 215 149 149 149 8 87 87 87 87 87 98 191 44 201
 201 201 201 201 201 88 88 88 174 174 215 215 215 215 215 215 149 149 149 149
 149 87 87 87 191 191 191 91 37 201 201 201 201 88 88 88 88 88 88 29
 29 30 215 215 149 149 149 149 149 149 87 87 191 191 191 191 91 37 37 37
 201 201 88 88 88 88 88 88 29 29 29 77 77 149 149 149 149 149 149 87
 191 191 191 191 191 91 37 37 37 37 37 88 88 88 88 88 88 29 29 77
 77 77 77 149 149 149 149 149 149 191 191 191 191 191 91 37 37 37 37 37
 88 88 88 88 88 192 192 192 77 77 77 77 149 149 149 149 149 149 191 191
 191 191 191 91 37 37 37 37 37 88 88 88 88 192 192 192 192 77 77 77
 77 77 149 149 149 149 57 57 57 191 191 191 91 37 37 37 37 37 35 28
 28 28 192 192 192 192 77 77 77 77 77 77 149 149 57 57 57 57 57 57
 57 57 37 37 37 37 18 28 28 28 28 181 192 192 192 77 77 77 77 77
 77 77 77 195 57 57 57 57 57 57 57 37 37 37 18 18 18 28 28 28
 181 181 192 192 77 216 216 216 77 77 77 202 195 195 57 57 57 57 57 57
 57 37 18 18 18 18 18 28 28 181 181 181 192 77 216 216 216 77 202 202
 202 195 195 136 136 152 152 152 152 152 18 18 18 18 18 18 18 28 181 181
 181 7 7 216 216 100 100 100 100 202 195 195 136 136 152 152 152 152 152 168
 18 18 18 18 18 18 203 203 181 7 7 7 7 100 100 100 100 100 217 195
 195 136 136 136 152 152 152 168 168 168 18 18 18 18 203 203 203 7 7 7
 7 7 100 100 100 100 100 217 195 195 136 136 136 152 152 168 168 168 168 62
 62 62 62 62 45 203 7 7 7 7 7 7 100 100 100 100 217 195 195 136
 136 136 152 168 168 168 168 168 62 62 62 62 62 62 45 7 7 7 7 7
 7 100 100 100 100 100 4 4 4 4 136 168 168 168 168 168 62 62 226 226
 226 226 45 45 7 7 7 7 7 7 188 230 230 34 34 4 4 4 4 248
 248 248 248 168 26 226 226 226 226 226 226 45 246 246 246 99 99 99 99 188
 188 188 34 34 4 4 4 4 248 248 248 248 248 139 226 226 226 226 226 226
 226 246 246 246 99 99 99 99 188 230 34 34 34 34 4 4 4 248 248 248
 248 139 139 139 226 226 226 67 67 67 246 246 246 99 99 99 99 99 34 34
 34 34 34 4 4 4 248 248 248 248 139 139 139 139 226 67 67 67 67 246
 246 246 99 99 99 99 17 17 34 34 34 182 4 4 4 248 248 248 139 139
 139 139 139 139 67 67 67 67 67 246 246 99 99 99 99 17 17 34 34 34
 182 182 4 4 248 159 159 159 139 139 139 139 139 67 67 67 67 67 246 246
 99 99 99 99 17 17 17 34 34 182 182 4 4 159 159 159 159 159 139 139
 139 139 67 67 67 67 67 20 20 99 145 145 145 145 145 17 34 182 172 172
 8 159 159 159 159 159 159 159 209 209 209 169 169 20 20 20 20 20 145 145
 145 145 145 145 172 172 172 172 8 8 8 159 159 159 159 159 159 209 209 209
 209 169 20 20 20 20 20 145 145 145 145 145 145 172 172 172 8 8 8 8
 159 159 44 44 44 44 209 209 209 209 169 20 20 20 20 20 215 145 145 145
 145 145 172 172 8 8 8 8 8 8 44 44 44 44 44 44 44 201 201 20
 20 20 20 20 215 215 215 145 145 145 145 145 8 8 8 8 8 8 8 44
 44 44 44 44 201 201 201 201 201 174 174 174 174 215 215 215 215 221 221 221
 221 8 8 8 8 8 8 8 44 44 44 44 201 201 201 201 201 201 174 174
 174 174 174 215 215 215 221 221 221 149 149 8 87 87 87 87 87 87 44 44
 44 201 201 201 201 201 88 88 174 174 174 29 29 215 215 221 221 149 149 149
 149 87 87 87 87 87 191 191 191 201 201 201 201 201 201 88 88 88 174 29
 29 29 29 29 149 149 149 149 149 149 149 87 87 191 191 191 191 191 37 37
 201 201 201 88 88 88 88 88 29 29 29 29 29 149 149 149 149 149 149 149
 87 87 191 191 191 191 191 37 37 37 37 201 88 88 88 88 29 29 29 29
 29 77 77 149 149 149 149 149 149 149 191 191 191 191 191 191 37 37 37 37
 37 88 88 88 88 29 29 29 29 77 77 77 77 149 149 149 149 149 149 191
 191 191 191 191 191 37 37 37 37 37 35 35 35 35 35 192 192 192 77 77
 77 77 77 149 149 149 149 57 57 57 57 57 57 57 37 37 37 37 11 35
 35 35 35 35 192 192 192 77 77 77 77 77 77 149 149 57 57 57 57 57
 57 57 57 37 37 37 11 11 11 28 28 28 35 192 192 192 77 77 77 77
 77 77 77 77 195 57 57 57 57 57 57 57 57 37 10 18 18 18 28 28
 28 181 181 192 77 77 77 77 77 77 77 77 195 195 195 57 57 57 57 57
 57 57 57 18 18 18 18 18 28 28 181 181 137 137 77 216 216 216 100 100
 202 195 195 195 136 136 152 152 152 152 152 18 18 18 18 18 18 18 28 28
 137 137 7 7 7 216 100 100 100 100 195 195 195 136 136 152 152 152 152 152
 152 18 18 18 18 18 18 28 28 7 7 7 7 7 100 100 100 100 100 195
 195 195 136 136 152 152 152 152 152 168 18 18 18 18 18 18 203 203 7 7
 7 7 7 7 100 100 100 100 195 195 195 136 136 152 152 152 152 168 168 62
 62 62 62 62 62 62 62 7 7 7 7 7 7 100 100 100 100 195 195 195
 195 136 152 152 152 152 168 168 62 62 62 62 62 62 62 62 7 7 7 7
 7 7 100 100 100 100 195 195 195 4 136 248 248 248 168 168 26 62 62 62
 62 62 62 62 62 7 7 7 7 7 7 188 188 188 34 34 4 4 4 4
 248 248 248 248 26 26 26 226 226 226 226 226 226 246 246 246 7 7 7 7
 188 188 188 34 34 4 4 4 4 248 248 248 248 132 26 26 226 226 226 226
 226 246 246 246 246 246 99 99 99 17 17 34 34 34 34 4 4 248 248 248
 248 248 132 139 139 226 226 226 226 67 67 246 246 246 246 99 99 99 17 17
 34 34 34 34 4 4 248 248 248 248 248 139 139 139 139 226 67 67 67 67
 246 246 246 246 99 99 17 17 17 17 34 34 182 4 4 248 248 248 248 248
 139 139 139 139 139 67 67 67 67 67 246 246 246 99 99 17 17 17 17 17
 34 182 4 4 248 248 248 159 159 139 139 139 139 139 67 67 67 67 67 20
 246 99 99 99 17 17 17 17 17 17 182 4 4 248 159 159 159 159 159 139
 139 139 139 67 67 20 20 20 20 20 20 145 145 145 145 17 17 17 17 172
 8 8 159 159 159 159 159 159 159 139 139 209 20 20 20 20 20 20 20 20
 58 58 58 145 145 17 17 17 8 8 8 8 159 159 159 159 44 44 44 209
 209 209 20 20 20 20 20 20 20 58 58 58 145 145 145 8 8 8 8 8
 8 44 44 44 44 44 44 44 44 209 20 20 20 20 20 20 20 20 145 145
 145 145 145 145 8 8 8 8 8 8 8 44 44 44 44 44 44 44 44 44
 20 20 20 20 20 20 215 221 221 221 221 221 221 8 8 8 8 8 8 8
 44 44 44 44 44 44 201 201 201 201 174 174 174 174 174 215 221 221 221 221
 221 221 8 8 87 87 87 8 8 44 44 44 44 44 201 201 201 201 201 174
 174 174 174 174 29 221 221 221 221 221 149 149 87 87 87 87 87 87 44 44
 44 44 201 201 201 201 201 88 174 174 174 174 29 29 29 221 221 221 149 149
 149 149 87 87 87 87 87 191 191 191 44 201 201 201 201 201 88 174 174 174
 29 29 29 29 29 221 149 149 149 149 149 149 87 87 191 191 191 191 191 37
 201 201 201 201 201 88 88 174 29 29 29 29 29 29 149 149 149 149 149 149
 149 87 87 191 191 191 191 191 37 37 37 37 201 88 88 88 88 29 29 29
 29 29 29 149 149 149 149 149 149 149 149 191 191 191 191 191 191 37 37 37
 37 37 35 35 35 35 29 29 29 29 29 77 77 149 149 149 149 149 149 191
 191 191 191 191 191 191 37 37 37 37 35 35 35 35 35 35 29 29 29 77
 77 77 77 160 160 149 149 57 57 57 57 57 57 57 57 37 37 37 10 11
 35 35 35 35 35 192 192 192 77 77 77 77 160 160 160 160 57 57 57 57
 57 57 57 57 57 10 10 10 11 11 35 35 35 35 35 192 192 77 77 77
 77 160 160 160 160 195 57 57 57 57 57 57 57 57 10 10 10 11 11 11
 28 28 35 35 137 137 137 77 77 77 160 160 160 195 195 195 57 57 57 57
 57 57 57 10 10 18 18 18 18 28 28 28 137 137 137 137 137 137 216 100
 160 195 195 195 195 195 136 57 57 57 57 57 10 10 18 18 18 18 18 28
 28 137 137 137 137 137 137 100 100 100 195 195 195 195 195 136 152 152 152 152
 152 18 18 18 18 18 18 18 18 232 232 232 137 137 137 137 100 100 100 195
 195 195 195 195 136 152 152 152 152 152 14 14 18 18 18 18 18 18 232 232
 232 7 7 7 7 100 100 100 100 195 195 195 195 136 152 152 152 152 152 168
 62 62 62 62 62 62 62 232 232 7 7 7 7 7 100 100 100 100 195 195
 195 195 136 152 152 152 152 26 26 62 62 62 62 62 62 62 62 7 7 7
 7 7 7 7 100 100 195 195 195 195 195 136 152 248 152 26 26 26 26 62
 62 62 62 62 62 92 92 7 7 7 7 7 7 188 188 195 195 4 4 4
 248 248 248 248 132 26 26 26 26 62 62 62 62 92 92 92 92 92 7 7
 7 17 188 188 34 34 4 4 4 248 248 248 248 132 132 26 26 26 226 226
 226 92 92 92 92 92 92 92 92 166 17 17 17 17 34 34 4 4 248 248
 248 248 132 132 132 26 26 226 226 226 92 92 92 92 92 92 92 92 17 17
 17 17 17 17 34 4 4 248 248 248 248 132 132 132 139 139 122 122 67 67
 92 92 92 92 92 92 17 17 17 17 17 17 17 42 42 42 248 248 248 248
 248 132 139 139 139 139 122 67 67 92 92 92 92 92 92 17 17 17 17 17
 17 17 42 42 42 42 248 248 159 159 139 139 139 139 139 122 67 20 20 20
 20 92 92 92 17 17 17 17 17 17 17 8 42 42 42 159 159 159 159 159
 139 139 139 139 20 20 20 20 20 20 20 20 145 17 17 17 17 17 17 17
 8 8 8 8 44 44 44 44 44 44 44 44 20 20 20 20 20 20 20 20
 20 58 58 58 58 145 17 17 17 8 8 8 8 44 44 44 44 44 44 44
 44 209 20 20 20 20 20 20 20 20 58 58 58 58 145 17 17 8 8 8
 8 8 44 44 44 44 44 44 44 44 44 20 20 20 20 20 20 20 20 58
 58 58 145 145 145 8 8 8 8 8 8 44 44 44 44 44 44 44 44 44
 44 20 20 20 20 20 20 20 221 221 221 221 221 221 8 8 8 8 8 8
 8 44 44 44 44 44 44 44 201 201 174 174 174 174 174 174 174 221 221 221
 221 221 221 8 8 87 87 87 87 87 44 44 44 44 44 44 201 201 201 174
 174 174 174 174 174 29 221 221 221 221 221 221 149 87 87 87 87 87 87 44
 44 44 44 44 201 201 201 201 174 174 174 174 174 29 29 29 221 221 221 221
 239 239 239 87 87 87 87 87 191 191 171 171 171 171 201 201 201 174 174 174
 174 29 29 29 29 29 221 205 239 239 239 239 239 87 87 87 191 191 191 171
 171 171 171 171 201 201 88 174 174 29 29 29 29 29 29 29 205 239 239 239
 239 239 87 87 191 191 191 191 171 171 171 171 171 201 201 88 88 29 29 29
 29 29 29 29 29 205 239 239 239 239 239 87 191 191 191 191 191 191 171 171
 171 171 35 35 35 35 35 29 29 29 29 29 29 160 160 160 239 239 239 239
 57 57 57 57 191 191 191 171 37 37 10 35 35 35 35 35 35 29 29 29
 29 160 160 160 160 160 160 160 57 57 57 57 57 57 57 57 57 10 10 10
 11 35 35 35 35 35 29 29 29 77 160 160 160 160 160 160 160 57 57 57
 57 57 57 57 57 57 10 10 10 11 11 35 35 35 35 35 137 137 137 160
 160 160 160 160 160 160 195 57 57 57 57 57 57 57 10 10 10 10 11 11
 11 35 35 35 137 137 137 137 137 160 160 160 160 160 160 195 195 57 57 57
 57 57 57 10 10 10 10 11 11 11 11 28 28 137 137 137 137 137 137 160
 160 160 160 195 195 195 195 195 57 57 57 57 10 10 10 10 18 18 18 18
 232 232 232 137 137 137 137 137 137 69 69 69 195 195 195 195 195 152 152 152
 152 14 14 14 14 18 18 18 18 232 232 232 232 137 137 137 137 137 69 69
 69 195 195 195 195 195 152 152 152 152 152 14 14 14 14 18 18 18 232 232
 232 232 232 7 7 7 7 69 69 69 195 195 195 195 195 152 152 152 152 26
 14 14 14 62 62 62 62 232 232 232 232 7 7 7 7 7 69 69 69 195
 195 195 195 195 152 152 152 26 26 26 26 62 62 62 62 62 62 232 232 7
 7 7 7 7 7 69 69 69 195 195 195 195 195 248 248 26 26 26 26 26
 62 62 62 62 62 62 92 92 92 7 7 7 166 166 166 166 69 195 195 195
 195 248 248 248 132 132 26 26 26 26 62 62 62 62 92 92 92 92 92 92
 166 166 166 166 166 166 34 195 4 4 248 248 248 132 132 132 26 26 26 26
 226 122 92 92 92 92 92 92 92 166 166 166 17 17 17 17 42 42 42 248
 248 248 132 132 132 132 26 26 26 122 122 122 92 92 92 92 92 92 92 17
 17 17 17 17 17 42 42 42 42 248 248 132 132 132 132 26 26 122 122 122
 122 122 92 92 92 92 92 17 17 17 17 17 17 17 42 42 42 42 42 248
 132 132 132 132 139 139 122 122 122 122 122 92 92 92 92 92 17 17 17 17
 17 17 17 42 42 42 42 42 42 132 132 132 132 139 139 122 122 122 122 20
 20 20 92 92 92 17 17 17 17 17 17 17 42 42 42 42 42 44 44 44
 44 44 44 44 122 122 20 20 20 20 20 20 20 20 17 17 17 17 17 17
 17 8 42 42 42 44 44 44 44 44 44 44 44 44 20 20 20 20 20 20
 20 20 20 58 58 17 17 17 17 17 8 8 8 44 44 44 44 44 44 44
 44 44 44 20 20 20 20 20 20 20 20 58 58 58 58 145 17 17 17 8
 8 8 8 44 44 44 44 44 44 44 44 44 20 20 20 20 20 20 20 20
 58 221 221 221 221 221 221 8 13 13 13 13 13 44 44 44 44 44 44 44
 44 154 20 20 20 20 20 147 147 221 221 221 221 221 221 13 13 13 13 13
 13 13 44 44 44 44 44 44 44 44 154 174 174 174 174 174 174 147 221 221
 221 221 221 221 13 13 13 13 13 13 13 44 44 44 44 44 44 44 201 201
 174 174 174 174 174 174 29 221 221 221 221 221 221 13 13 87 87 87 87 87
 44 44 44 44 171 171 201 201 201 174 174 174 174 174 29 29 29 221 221 221
 205 239 239 239 239 87 87 87 87 44 44 171 171 171 171 171 201 201 174 174
 174 174 29 29 29 29 29 221 205 205 239 239 239 239 87 87 87 191 191 171
 171 171 171 171 171 201 201 174 174 174 29 29 29 29 29 29 29 205 205 239
 239 239 239 239 87 191 191 191 191 171 171 171 171 171 171 35 35 174 29 29
 29 29 29 29 29 205 205 205 239 239 239 239 239 191 191 191 191 191 171 171
 171 171 171 171 35 35 35 35 29 29 29 29 29 160 160 160 160 160 239 239
 239 57 57 57 57 57 57 171 171 171 10 10 10 35 35 35 35 35 29 29
 29 29 160 160 160 160 160 160 160 57 57 57 57 57 57 57 57 57 10 10
 10 10 19 35 35 35 19 29 29 29 160 160 160 160 160 160 160 160 57 57
 57 57 57 57 57 57 10 10 10 10 10 11 19 19 19 19 19 137 137 160
 160 160 160 160 160 160 160 195 57 57 57 57 57 57 57 10 10 10 10 10
 11 11 19 19 19 137 137 137 137 137 160 160 160 160 160 160 195 195 57 57
 57 57 57 57 10 10 10 10 10 11 11 11 19 232 137 137 137 137 137 137
 160 160 160 160 195 195 195 195 195 57 57 57 57 10 10 10 10 10 11 11
 11 232 232 232 137 137 137 137 137 160 69 69 69 195 195 195 195 195 195 152
 15 70 70 70 14 14 14 14 18 112 232 232 232 232 137 137 137 137 137 69
 69 69 69 195 195 195 195 152 152 152 70 14 14 14 14 14 14 14 112 232
 232 232 232 232 137 137 137 137 69 69 69 69 195 195 195 195 152 152 152 68
 14 14 14 14 14 14 62 62 232 232 232 232 232 232 7 7 69 69 69 69
 69 195 195 195 195 195 152 152 68 26 26 14 14 14 14 62 62 232 232 232
 232 232 7 7 7 166 69 69 69 69 195 195 195 195 195 248 26 26 26 26
 26 14 62 62 62 62 232 232 92 92 7 7 166 166 166 166 166 69 69 195
 195 195 195 248 248 132 26 26 26 26 26 62 62 62 92 92 92 92 92 92
 92 166 166 166 166 166 166 123 123 42 42 42 248 132 132 132 132 26 26 26
 126 126 122 92 92 92 92 92 92 92 166 166 166 166 17 17 123 42 42 42
 42 42 132 132 132 132 132 26 26 126 122 122 122 122 92 92 92 92 92 166
 166 17 17 17 17 17 42 42 42 42 42 42 132 132 132 132 132 132 122 122
 122 122 122 92 92 92 92 92 17 17 17 17 17 17 17 42 42 42 42 42
 42 132 132 132 132 132 122 122 122 122 122 122 122 92 92 92 92 17 17 17
 17 17 17 17 42 42 42 42 42 42 132 132 132 132 44 122 122 122 122 122
 122 20 20 92 92 92 17 17 17 17 17 17 17 42 42 42 42 42 42 44
 44 44 44 44 44 122 122 122 20 20 20 20 20 20 20 17 17 17 17 17
 17 17 13 42 42 42 42 44 44 44 44 44 44 44 44 20 20 20 20 20
 20 20 20 20 101 17 17 17 17 17 17 13 13 13 228 44 44 44 44 44
 44 44 44 44 20 20 20 20 20 20 20 147 147 58 58 58 17 17 17 17
 13 13 13 13 44 44 44 44 44 44 44 44 44 20 20 20 20 20 20 147
 147 147 221 221 221 221 221 221 198 13 13 13 107 107 44 44 44 44 44 44
 44 44 154 154 154 20 20 147 147 147 147 221 221 221 221 221 13 13 13 13
 13 107 107 44 44 44 44 44 44 44 44 154 154 154 154 174 174 147 147 221
 221 221 221 221 221 13 13 13 13 13 107 107 44 44 44 44 44 44 44 44
 154 154 154 174 174 174 174 29 221 221 221 221 221 205 13 13 13 13 13 107
 107 44 44 44 171 171 171 171 171 154 154 174 174 174 174 174 29 29 221 221
 221 205 205 239 239 239 87 87 87 107 44 44 171 171 171 171 171 171 171 174
 174 174 174 174 29 29 29 155 155 205 205 205 239 239 239 87 87 194 191 191
 171 171 171 171 171 171 171 171 174 174 174 174 29 29 29 29 155 155 205 205
 205 239 239 239 239 194 21 191 191 171 171 171 171 171 171 171 19 19 19 174
 29 29 29 29 29 155 155 205 205 205 239 239 239 239 21 191 237 237 171 171
 171 171 171 171 171 19 19 19 19 19 29 29 29 29 160 160 160 160 160 160
 239 239 21 21 57 57 237 237 171 171 171 171 10 10 19 19 19 19 19 29
 29 29 65 160 160 160 160 160 160 160 57 57 57 57 57 237 237 237 10 10
 10 10 10 19 19 19 19 19 19 65 65 65 160 160 160 160 160 160 160 57
 57 57 57 57 57 57 57 10 10 10 10 10 10 19 19 19 19 19 65 65
 65 65 160 160 160 160 160 160 177 177 177 177 57 57 57 57 10 10 10 10
 10 10 19 19 19 19 137 137 65 137 137 160 160 160 160 160 160 195 195 177
 177 177 15 15 15 10 10 10 10 10 10 11 11 19 232 137 137 137 137 137
 137 150 150 150 150 150 195 195 177 177 177 15 15 15 70 10 10 10 10 10
 11 112 112 232 232 137 137 137 137 137 150 150 69 69 69 195 195 195 177 177
 15 15 70 70 70 14 14 14 14 14 112 112 112 232 232 137 137 137 137 150
 69 69 69 69 69 195 195 195 177 15 15 70 70 70 14 14 14 14 14 112
 112 232 232 102 232 232 137 137 137 69 69 69 69 69 195 195 195 195 15 68
 68 68 68 14 14 14 14 14 112 112 232 232 232 232 232 7 137 69 69 69
 69 69 195 195 195 195 195 68 68 68 68 68 68 14 14 14 14 112 112 232
 232 232 232 232 7 166 166 69 69 69 69 195 195 195 195 195 68 68 68 68
 68 68 68 14 14 135 135 112 232 9 9 9 7 166 166 166 166 123 123 123
 123 195 195 42 248 248 132 26 26 26 26 68 126 126 135 135 92 227 227 227
 227 227 166 166 166 166 123 123 123 123 42 42 42 42 132 132 132 132 26 26
 126 126 126 126 122 92 227 227 227 227 227 166 166 166 166 123 123 123 42 42
 42 42 42 132 132 132 132 132 26 126 126 126 126 122 122 227 227 227 227 227
 220 220 166 17 17 123 123 42 42 42 42 42 42 132 132 132 132 132 126 126
 126 122 122 122 92 227 227 227 227 220 220 17 17 17 17 17 42 42 42 42
 42 42 132 132 132 132 52 126 126 122 122 122 122 122 227 227 227 227 17 17
 17 17 17 17 17 42 42 42 42 42 42 42 132 132 44 52 122 122 122 122