# vtk DataFile Version 2.0
Data set from ImportExport Version 6.5.171.b0b162591
ASCII

DATASET RECTILINEAR_GRID
DIMENSIONS 30 30 30
X_COORDINATES 30 float
-1.250000 1.250000 3.750000 6.250000 8.750000 11.250000 13.750000 16.250000 18.750000 21.250000 23.750000 26.250000 28.750000 31.250000 33.750000 36.250000 38.750000 41.250000 43.750000 46.250000 48.750000 
51.250000 53.750000 56.250000 58.750000 61.250000 63.750000 66.250000 68.750000 71.250000 
Y_COORDINATES 30 float
-1.250000 1.250000 3.750000 6.250000 8.750000 11.250000 13.750000 16.250000 18.750000 21.250000 23.750000 26.250000 28.750000 31.250000 33.750000 36.250000 38.750000 41.250000 43.750000 46.250000 48.750000 
51.250000 53.750000 56.250000 58.750000 61.250000 63.750000 66.250000 68.750000 71.250000 
Z_COORDINATES 30 float
-1.250000 1.250000 3.750000 6.250000 8.750000 11.250000 13.750000 16.250000 18.750000 21.250000 23.750000 26.250000 28.750000 31.250000 33.750000 36.250000 38.750000 41.250000 43.750000 46.250000 48.750000 
51.250000 53.750000 56.250000 58.750000 61.250000 63.750000 66.250000 68.750000 71.250000 
CELL_DATA 24389
SCALARS FeatureIds int 1
LOOKUP_TABLE default
 252 252 252 252 252 178 178 178 208 208 208 208 208 208 205 205 205 205 205 205
 112 112 112 112 112 84 18 18 18 124 252 252 252 61 178 178 178 208 208 208
 208 208 208 205 205 205 205 205 205 112 112 112 112 84 84 18 18 18 61 61
 61 61 61 61 61 123 123 123 123 208 208 208 148 148 148 148 148 148 141 112
 112 112 84 84 18 18 18 61 61 61 61 61 61 61 126 126 123 123 208 208
 39 39 148 148 148 148 141 141 141 141 75 75 75 75 18 18 61 61 61 61
 61 61 126 126 126 163 163 163 163 39 39 39 148 148 148 141 141 141 141 75
 75 75 75 75 75 137 137 61 61 61 126 126 126 126 126 163 163 163 39 39
 39 39 148 141 141 141 141 141 75 75 75 75 75 75 137 137 137 137 126 126
 126 126 126 126 163 163 163 39 39 39 39 141 141 141 207 207 207 75 75 75
 75 75 137 137 137 137 137 137 126 126 126 126 126 163 163 163 39 39 39 39
 141 207 207 207 207 226 226 226 226 226 226 137 137 137 137 137 137 126 126 126
 126 126 126 163 163 39 39 39 39 141 207 207 207 207 226 226 226 226 226 226
 137 137 137 137 137 137 126 126 126 126 126 126 60 60 60 60 60 39 207 207
 207 207 90 90 226 226 226 226 226 137 137 137 137 137 137 126 126 126 126 126
 126 60 60 60 60 60 60 207 207 207 207 90 90 90 226 226 226 226 137 137
 137 137 7 7 164 164 164 126 126 60 60 60 60 60 60 60 60 153 153 90
 90 90 90 90 226 226 177 177 177 7 7 7 7 164 164 164 164 234 60 60
 60 60 60 60 60 48 48 153 90 90 90 90 90 177 177 177 177 177 7 7
 7 7 164 164 164 164 234 234 60 60 60 60 60 48 48 48 48 90 90 90
 90 90 177 177 177 177 177 7 7 7 164 164 164 164 164 234 234 95 60 60
 60 60 48 48 48 48 48 90 90 90 90 177 177 177 177 177 170 7 7 164
 164 164 164 95 95 95 95 95 95 60 48 48 48 48 48 48 131 131 131 131
 177 177 177 177 170 170 170 63 63 164 63 63 95 95 95 95 95 95 95 48
 48 48 48 48 48 131 131 131 131 100 100 177 177 212 170 170 63 63 63 63
 63 63 95 95 95 95 95 95 214 214 214 214 214 131 131 131 131 131 100 100
 212 212 212 212 63 63 63 63 63 63 63 95 95 95 95 111 111 214 214 214
 214 214 214 131 131 131 100 100 100 212 212 212 212 63 63 63 63 63 63 63
 95 111 111 111 111 111 214 214 214 214 214 214 131 131 100 100 100 212 212 212
 212 212 63 63 63 63 63 63 1 1 1 111 111 111 111 214 214 214 214 214
 214 101 131 100 100 100 212 212 212 212 212 63 63 63 63 63 63 1 1 1
 111 111 111 111 184 184 184 184 184 101 101 101 100 100 100 212 212 212 155 155
 155 155 155 155 63 1 1 1 1 111 111 111 184 184 184 184 184 184 101 101
 101 101 100 100 212 212 212 155 155 155 155 243 243 243 243 1 1 1 111 111
 121 184 184 184 184 184 184 101 101 101 101 54 54 54 54 212 89 89 89 89
 243 243 243 243 243 1 1 121 121 121 121 184 184 184 184 184 101 101 101 101
 54 54 54 54 54 89 89 89 89 89 243 243 243 243 243 121 121 121 121 121
 121 235 235 235 235 101 101 101 54 54 54 54 54 54 252 252 252 252 252 243
 243 243 243 243 121 121 121 121 121 121 235 235 235 235 235 101 101 54 54 54
 54 54 54 252 252 252 252 252 178 178 243 243 243 121 121 121 121 121 235 235
 235 235 235 235 112 112 112 54 54 54 54 54 252 252 252 252 252 178 178 178
 178 123 123 121 121 121 121 205 205 205 205 235 112 112 112 112 112 54 54 54
 54 252 252 252 252 252 178 178 123 123 123 123 123 123 123 205 205 205 205 205
 27 27 27 27 84 84 84 84 84 18 124 252 252 252 252 178 178 123 123 123
 123 123 123 123 123 205 205 205 205 27 27 27 27 84 84 84 84 84 18 124
 200 200 61 61 61 61 123 123 123 123 123 123 123 123 148 148 148 148 27 27
 27 27 84 84 84 84 84 18 200 200 61 61 61 200 200 123 123 123 123 123
 123 123 39 148 148 148 148 141 141 141 27 84 84 84 84 84 18 137 61 61
 61 61 61 126 126 126 163 163 163 163 39 39 39 148 148 141 141 141 141 141
 75 75 75 75 75 75 137 137 137 200 61 126 126 126 126 126 163 163 163 39
 39 39 39 148 141 141 141 141 141 75 75 75 75 75 137 137 137 137 137 126
 126 126 126 126 126 163 163 163 39 39 39 39 141 141 141 141 141 141 226 226
 226 226 226 137 137 137 137 137 137 126 126 126 126 126 163 163 163 39 39 39
 39 141 207 207 207 207 226 226 226 226 226 226 137 137 137 137 137 137 174 174
 126 126 126 126 163 163 39 39 39 39 207 207 207 207 207 226 226 226 226 226
 226 137 137 137 137 137 174 174 174 126 126 126 126 60 60 60 60 39 39 207
 207 207 207 90 90 226 226 226 226 226 137 137 137 137 137 174 174 174 126 126
 126 60 60 60 60 60 60 60 207 207 153 153 90 90 90 226 226 226 226 137
 177 137 137 137 174 174 174 174 126 234 60 60 60 60 60 60 60 60 153 153
 153 90 90 90 90 226 226 177 177 177 137 7 7 7 164 164 164 234 234 234
 60 60 60 60 60 60 60 153 153 153 90 90 90 90 177 177 177 177 177 170
 170 7 7 164 164 164 234 234 234 234 60 60 60 60 48 48 48 153 153 90
 90 90 90 177 177 177 177 177 170 170 170 164 164 164 164 234 234 234 234 60
 60 60 240 48 48 48 48 48 90 90 213 90 177 177 177 177 170 170 170 170
 170 164 164 63 95 95 95 95 95 240 240 240 48 48 48 48 48 213 213 213
 213 177 177 177 177 170 170 170 170 63 63 63 63 95 95 95 95 95 95 240
 240 48 48 48 48 48 213 213 213 213 213 177 177 177 170 170 170 63 63 63
 63 63 63 95 95 95 95 95 240 240 214 214 214 214 213 213 213 213 213 213
 100 212 212 212 170 63 63 63 63 63 63 63 95 95 95 95 95 240 214 214
 214 214 214 231 213 213 213 213 100 100 212 212 212 63 63 63 63 63 63 63
 63 95 95 95 95 95 214 214 214 214 214 214 231 213 213 213 100 100 212 212
 212 212 63 63 63 63 63 63 63 63 1 1 111 111 111 214 214 214 214 214
 231 231 231 213 100 100 100 212 212 212 155 155 155 155 63 63 63 63 1 1
 1 111 111 111 214 214 214 214 214 231 101 101 101 101 100 100 212 212 212 155
 155 155 155 155 155 63 63 1 1 1 111 111 111 184 184 184 184 184 184 101
 101 101 101 101 54 54 212 212 155 155 155 155 155 155 243 243 1 1 1 82
 121 121 184 184 184 184 184 184 101 101 101 101 101 54 54 54 54 89 89 89
 89 89 155 243 243 243 1 82 121 121 121 121 184 184 184 184 184 101 101 101
 101 54 54 54 54 54 89 89 89 89 89 243 243 243 243 243 121 121 121 121
 121 121 184 184 184 184 101 101 101 54 54 54 54 54 54 252 252 252 252 252
 243 243 243 243 243 121 121 121 121 121 121 121 235 235 235 235 101 101 54 54
 54 54 54 54 252 252 252 252 252 252 178 243 243 123 121 121 121 121 121 121
 205 205 205 235 235 112 112 54 54 54 54 54 54 252 252 252 252 252 252 178
 178 123 123 123 121 121 121 121 205 205 205 205 205 27 112 112 112 84 84 84
 84 84 124 124 252 252 252 200 200 123 123 123 123 123 123 123 123 205 205 205
 205 27 27 27 27 84 84 84 84 84 84 124 200 200 200 200 200 200 123 123
 123 123 123 123 123 123 205 205 205 205 27 27 27 27 84 84 84 84 84 84
 124 200 200 200 200 200 200 123 123 123 123 123 123 123 123 148 148 148 148 27
 27 27 27 84 84 84 84 84 84 200 200 200 200 200 200 200 200 123 123 123
 123 123 123 39 39 148 148 141 141 141 27 27 84 84 84 84 84 84 200 200
 200 200 200 200 200 109 109 123 123 123 123 39 39 39 39 148 141 141 141 141
 141 84 84 84 84 84 84 137 157 200 200 200 200 126 109 109 109 109 109 39
 39 39 39 39 141 141 141 141 141 141 226 226 226 226 11 11 137 137 137 200
 200 174 174 174 109 109 109 163 39 39 39 39 39 207 207 141 141 141 141 226
 226 226 226 226 11 137 137 137 137 174 174 174 174 174 126 109 163 39 39 39
 39 39 207 207 207 207 207 226 226 226 226 226 226 137 137 137 137 137 174 174
 174 174 174 126 126 149 149 149 39 39 39 207 207 207 207 207 226 226 226 226
 226 226 137 137 137 137 137 174 174 174 174 174 174 174 60 60 60 149 149 149
 207 207 207 207 90 90 226 226 226 226 226 137 137 137 137 137 174 174 174 174
 174 174 234 60 60 60 60 60 149 153 153 153 153 90 90 90 226 226 226 226
 226 177 137 137 174 174 174 174 174 174 234 234 60 60 60 60 60 60 153 153
 153 153 90 90 90 90 226 226 177 177 177 170 170 24 24 24 24 24 234 234
 234 234 60 60 60 60 60 153 153 153 153 153 90 90 90 177 177 177 177 177
 170 170 24 24 24 24 24 234 234 234 234 60 60 60 60 240 48 153 153 153
 153 90 90 90 177 177 177 177 170 170 170 170 24 24 24 24 234 234 234 234
 234 240 240 240 240 48 48 48 153 153 213 213 213 177 177 177 177 170 170 170
 170 24 24 24 251 234 234 234 234 234 240 240 240 240 48 48 48 153 213 213
 213 213 213 177 177 170 170 170 170 170 170 24 63 251 251 95 95 95 95 240
 240 240 240 48 48 48 213 213 213 213 213 213 213 177 170 170 170 170 170 63
 63 63 251 116 116 95 95 95 95 240 240 240 214 214 231 213 213 213 213 213
 213 213 177 170 170 170 63 63 63 63 63 63 116 116 116 95 95 95 240 214
 214 214 214 231 231 213 213 213 213 213 213 212 212 212 63 63 63 63 63 63
 63 116 116 116 116 95 95 240 214 214 214 231 231 231 213 213 213 213 213 212
 212 212 155 155 155 63 63 63 63 63 116 116 116 116 116 111 214 214 214 214
 231 231 231 213 213 213 213 100 212 212 212 155 155 155 155 155 63 63 63 116
 116 219 219 82 59 59 214 214 231 231 231 231 101 101 101 101 100 212 212 212
 155 155 155 155 155 155 155 155 219 219 219 219 82 82 184 184 184 184 184 184
 101 101 101 101 101 54 54 247 247 155 155 155 155 155 155 155 155 219 219 219
 82 121 121 184 184 184 184 184 184 101 101 101 101 101 54 54 247 247 155 155
 155 155 155 155 155 155 254 82 82 121 121 121 121 121 184 184 184 184 101 101
 101 101 54 54 54 54 54 89 89 89 89 89 155 243 243 254 254 121 121 121
 121 121 121 184 184 184 184 101 101 101 54 54 54 54 54 54 252 252 252 252
 252 252 243 243 254 121 121 121 121 121 121 121 121 235 184 184 101 101 101 54
 54 54 54 54 54 252 252 252 252 252 252 252 252 123 123 121 121 121 121 121
 121 205 205 205 205 27 27 27 247 54 54 54 247 247 252 252 252 252 252 252
 252 123 123 123 123 123 121 121 121 205 205 205 205 205 27 27 27 27 84 84
 84 84 84 124 124 124 200 200 200 200 123 123 123 123 123 123 123 123 205 205
 205 205 27 27 27 27 84 84 84 84 84 84 124 124 124 200 200 200 200 123
 123 123 123 123 123 123 123 123 205 205 205 27 27 27 27 84 84 84 84 84
 84 124 124 200 200 200 200 200 123 123 123 123 123 123 123 123 123 148 148 27
 27 27 27 27 84 84 84 84 84 84 124 200 200 200 200 200 200 200 123 123
 123 123 123 123 39 39 39 148 141 141 27 27 27 84 84 84 84 84 84 200
 200 200 200 200 200 200 109 109 109 109 123 123 39 39 39 39 148 141 141 141
 141 27 84 84 84 84 11 11 157 157 200 200 200 200 200 109 109 109 109 109
 39 39 39 39 39 141 141 141 141 141 141 161 226 226 11 11 11 157 157 157
 157 200 174 174 174 109 109 109 109 39 39 39 39 39 207 207 141 141 141 141
 226 226 226 11 11 11 157 157 157 157 174 174 174 174 174 109 109 109 149 149
 149 149 149 207 207 207 207 207 226 226 226 226 11 11 11 157 157 157 157 174
 174 174 174 174 174 109 149 149 149 149 149 149 149 207 207 207 207 226 226 226
 226 226 11 11 137 137 137 174 174 174 174 174 174 174 174 149 149 149 149 149
 149 149 207 207 153 153 90 226 226 226 226 226 11 137 137 137 174 174 174 174
 174 174 174 234 149 149 149 149 149 149 149 153 153 153 153 90 90 226 226 226
 226 226 177 170 137 174 174 174 26 26 26 234 234 234 60 60 115 115 115 153
 153 153 153 153 90 90 90 226 226 177 177 177 170 170 24 24 24 24 26 26
 234 234 234 60 60 60 115 240 153 153 153 153 153 90 90 90 177 177 177 177
 170 170 170 24 24 24 24 24 24 234 234 234 234 202 240 240 240 240 153 153
 153 153 90 90 90 177 177 177 177 170 170 170 170 24 24 24 24 234 234 234
 234 234 240 240 240 240 240 48 153 153 153 213 213 213 177 177 177 170 170 170
 170 170 24 24 251 251 251 234 234 234 234 240 240 240 240 240 48 48 213 213
 213 213 213 213 177 177 170 170 170 170 170 24 251 251 251 251 116 234 234 234
 240 240 240 240 240 48 48 213 213 213 213 213 213 213 177 170 170 170 170 170
 63 251 251 251 251 116 116 116 116 240 240 240 240 240 231 231 213 213 213 213
 213 213 213 213 170 170 170 37 37 63 63 63 251 116 116 116 116 116 240 240
 240 214 231 231 231 231 213 213 213 213 213 213 213 170 37 37 37 37 63 63
 63 251 116 116 116 116 116 116 240 214 231 231 231 231 231 201 213 213 213 213
 213 213 212 37 37 37 37 63 63 63 63 116 116 116 116 116 241 59 214 231
 231 231 231 231 201 201 213 213 213 213 212 212 155 155 155 155 155 155 63 63
 219 219 219 219 82 59 59 59 231 231 231 231 231 201 201 201 213 213 247 247
 212 155 155 155 155 155 155 155 219 219 219 219 219 82 82 59 59 59 184 184
 231 101 101 101 101 247 247 247 247 247 155 155 155 155 155 155 155 155 219 219
 219 82 82 82 59 59 59 184 184 184 101 101 101 101 247 247 247 247 247 155
 155 155 155 155 155 155 155 254 82 82 82 82 121 121 121 184 184 184 184 101
 101 101 247 247 247 247 247 247 155 155 155 155 155 155 155 155 254 254 82 82
 121 121 121 121 121 184 184 184 101 101 101 247 247 247 247 247 247 81 81 81
 81 81 81 81 254 254 254 254 121 121 121 121 121 121 184 184 184 27 101 247
 247 247 247 247 247 247 81 81 81 81 81 81 81 123 123 123 123 121 121 121
 121 121 205 205 205 205 27 27 247 247 247 247 247 247 247 124 124 81 81 81
 81 81 123 123 123 123 123 123 121 121 121 205 205 205 205 27 27 27 247 84
 84 84 247 124 124 124 124 124 81 81 81 123 123 123 123 123 123 23 23 23
 205 205 27 27 27 27 27 108 84 84 84 84 124 124 124 124 200 200 200 200
 28 123 123 123 123 123 23 23 23 69 69 27 27 27 27 27 108 84 84 84
 84 124 124 124 200 200 200 200 200 200 123 123 123 123 23 23 23 23 69 69
 27 27 27 27 27 108 84 84 84 84 124 124 200 200 200 200 200 200 200 109
 123 123 23 23 23 23 39 230 230 176 176 27 27 27 108 84 84 84 84 124
 124 200 200 200 200 200 200 109 109 109 109 109 23 23 39 39 39 230 176 176
 176 27 27 161 84 84 84 11 11 157 157 200 200 200 200 200 109 109 109 109
 109 109 39 39 39 230 230 176 176 176 176 161 161 161 11 11 11 11 157 157
 157 157 174 174 174 109 109 109 109 109 109 39 39 39 39 230 176 176 176 176
 161 161 161 11 11 11 11 157 157 157 157 174 174 174 174 109 109 109 109 149
 149 149 149 149 149 207 176 176 176 161 161 161 11 11 11 11 157 157 157 157
 174 174 174 174 174 256 109 128 149 149 149 149 149 149 149 207 207 161 161 161
 226 11 11 11 11 157 157 157 174 174 174 174 174 174 256 128 128 149 149 149
 149 149 149 149 153 153 153 90 226 226 226 11 11 11 157 157 157 174 174 174
 174 26 26 26 128 128 149 149 149 149 115 149 153 153 153 153 90 90 226 226
 226 226 11 177 170 174 174 174 26 26 26 26 26 234 234 115 115 115 115 115
 115 153 153 153 153 153 90 90 226 226 177 177 177 170 24 24 24 24 26 26
 26 234 234 234 202 202 115 115 115 115 153 153 153 153 153 90 51 51 51 177
 177 170 170 170 24 24 24 24 26 26 234 234 234 202 202 202 240 240 240 153
 153 153 153 153 90 51 51 51 177 170 170 170 170 24 24 24 24 251 234 234
 234 234 234 202 240 240 240 240 153 153 153 153 213 213 213 51 177 177 170 170
 170 170 170 24 24 251 251 251 234 234 234 234 240 240 240 240 240 48 153 153
 213 213 213 213 213 177 177 170 170 170 170 170 24 251 251 251 251 251 116 234
 234 240 240 240 240 240 48 231 213 213 213 213 213 213 213 170 170 170 170 170
 37 37 251 251 251 251 116 116 116 116 240 240 240 240 231 231 231 201 201 213
 213 213 213 213 213 170 170 37 37 37 37 251 251 251 251 116 116 116 116 92
 92 240 231 231 231 231 201 201 213 213 213 213 213 213 170 37 37 37 37 37
 37 251 251 116 116 116 116 116 92 92 92 231 231 231 231 201 201 201 213 213
 213 213 213 212 37 37 37 37 37 37 63 251 116 116 116 116 241 241 241 241
 231 231 231 231 201 201 201 201 213 213 213 213 212 155 155 155 155 113 113 113
 219 219 219 219 219 82 241 59 59 231 231 231 231 201 201 201 201 201 247 247
 247 247 155 155 155 155 113 113 113 219 219 219 219 219 82 59 59 59 59 59
 184 231 47 47 47 247 247 247 247 247 247 155 155 155 155 155 155 155 219 219
 219 82 82 82 82 59 59 59 59 184 47 47 47 47 247 247 247 247 247 247
 155 155 155 155 155 155 155 254 254 82 82 82 82 82 59 59 59 59 184 47
 47 47 247 247 247 247 247 247 247 113 113 155 155 155 155 155 254 254 254 254
 82 82 121 121 121 59 59 184 47 47 47 247 247 247 247 247 247 247 81 81
 81 81 81 81 81 254 254 254 254 254 121 121 121 121 121 59 184 47 47 247
 247 247 247 247 247 247 247 81 81 81 81 81 81 81 254 254 254 254 121 121
 121 121 121 121 205 205 205 27 27 247 247 247 247 247 247 247 124 124 81 81
 81 81 81 81 123 123 123 123 123 23 121 121 205 205 205 205 27 27 27 247
 84 84 84 247 124 124 124 124 81 81 81 28 28 123 123 120 120 23 23 23
 69 69 69 19 19 204 204 204 108 108 84 84 84 124 124 124 124 200 200 200
 28 28 28 123 120 120 23 23 23 69 69 69 19 19 204 204 204 108 108 84
 84 84 124 124 124 124 200 200 200 200 28 28 123 120 23 23 23 23 69 69
 69 19 19 204 204 204 108 108 84 84 84 124 124 200 200 200 200 200 200 144
 109 23 23 23 23 23 23 230 230 230 230 176 176 27 27 108 84 84 84 84
 124 124 200 200 200 200 200 144 144 109 109 109 23 23 23 23 230 230 230 176
 176 176 176 161 161 161 84 11 11 124 157 157 200 200 200 200 144 144 109 109
 109 109 23 23 230 230 230 230 176 176 176 176 161 161 161 161 11 11 11 157
 157 157 157 200 174 144 144 109 109 109 109 109 149 149 230 230 230 176 176 176
 176 161 161 161 161 11 11 11 157 157 157 157 174 174 174 256 256 109 109 109
 149 149 149 149 149 149 176 176 176 161 161 161 161 161 11 11 11 157 157 157
 157 174 174 174 256 256 256 128 128 149 149 149 149 149 149 149 176 176 161 161
 161 161 161 11 11 11 157 157 157 174 174 174 256 256 256 256 128 128 149 149
 149 149 149 149 149 149 153 153 161 161 161 161 11 11 11 157 157 157 174 174
 26 26 26 256 256 128 128 128 149 149 149 149 149 153 153 153 153 161 161 161
 161 110 110 110 110 110 174 174 26 26 26 26 26 128 128 128 128 115 115 115
 115 115 153 153 153 153 172 51 51 51 110 110 110 170 170 24 24 24 26 26
 26 26 97 97 97 202 202 115 115 115 115 153 153 153 172 172 172 51 51 51
 110 110 170 170 170 24 24 24 26 26 26 97 97 97 202 202 202 115 115 115
 153 153 153 172 172 172 51 51 51 51 110 170 170 170 24 24 24 24 251 228
 228 234 234 202 202 202 240 240 240 240 153 172 172 172 172 51 51 51 51 170
 170 170 170 53 53 251 251 251 251 228 234 234 234 202 240 240 240 240 240 153
 172 213 213 213 213 213 51 170 170 170 170 53 53 53 251 251 251 251 251 228
 234 234 240 240 240 240 240 231 201 201 201 213 213 213 213 213 170 170 53 53
 53 37 37 251 251 251 251 251 116 116 116 92 92 240 240 231 231 201 201 201
 213 213 213 213 213 213 53 53 53 37 37 37 251 251 251 251 116 116 116 116
 92 92 92 231 231 231 201 201 201 201 213 213 213 213 53 53 53 37 37 37
 37 37 251 251 251 116 116 116 92 92 92 92 231 231 231 201 201 201 201 201
 213 213 213 53 53 37 37 37 37 37 37 251 251 251 219 219 241 241 241 92
 241 231 231 231 201 201 201 201 201 213 213 247 88 88 113 113 113 113 113 113
 113 251 219 219 219 219 241 241 241 241 59 231 231 201 201 201 201 201 201 247
 247 88 88 113 113 113 113 113 113 113 219 219 219 219 82 82 241 59 59 59
 59 231 47 47 47 47 47 247 247 247 247 88 155 113 113 113 113 113 113 254
 254 219 82 82 82 82 59 59 59 59 47 47 47 47 47 247 247 247 247 247
 247 113 113 113 113 113 113 254 254 254 254 82 82 82 82 59 59 59 59 47
 47 47 47 47 247 247 247 247 247 247 113 113 113 113 113 113 254 254 254 254
 254 82 82 82 59 59 59 59 59 47 47 47 247 247 247 247 247 247 247 81
 81 81 81 81 81 254 254 254 254 254 254 254 121 121 121 59 59 59 47 47
 47 247 247 247 247 247 247 247 81 81 81 81 81 81 81 254 254 254 254 254
 121 121 121 121 121 205 19 19 19 27 247 247 247 247 247 247 247 124 124 81
 81 81 81 81 254 254 123 123 123 23 23 23 69 69 69 19 19 19 27 27
 247 247 247 247 247 124 124 87 87 81 81 81 28 28 28 123 120 23 23 23
 69 69 69 69 19 19 19 204 204 108 108 84 84 124 124 124 87 87 87 200
 200 28 28 28 123 120 120 23 23 69 69 69 69 19 19 19 204 204 108 108
 84 84 84 124 124 124 124 200 200 200 28 28 28 28 120 23 23 23 69 69
 69 69 19 19 19 204 204 108 108 93 84 84 124 124 124 200 200 200 200 144
 144 144 144 23 23 23 23 69 69 230 230 230 19 19 204 204 108 93 93 93
 197 124 124 200 200 200 200 200 144 144 144 109 109 109 23 23 69 230 230 230
 230 176 176 176 161 161 161 93 11 11 11 157 157 157 200 200 144 144 144 144
 109 109 109 109 156 230 230 230 230 230 176 176 176 161 161 161 161 11 11 11
 157 157 157 157 250 144 144 144 144 109 109 109 156 156 230 230 230 230 230 176
 176 161 161 161 161 161 11 11 11 157 157 157 157 250 250 256 256 256 256 109
 156 156 156 149 149 149 230 230 176 176 161 161 161 161 161 11 11 11 157 157
 157 157 174 256 256 256 256 256 256 128 149 149 149 149 149 149 149 176 176 161
 161 161 161 161 11 11 11 157 157 157 157 174 256 256 256 256 256 128 128 128
 149 149 149 149 149 149 149 153 161 161 161 161 161 11 11 11 110 157 157 174
 26 26 256 256 256 256 128 128 128 149 149 149 149 149 149 153 153 172 161 161
 161 161 110 110 110 110 110 157 26 26 26 26 26 256 128 128 128 128 115 115
 115 115 115 153 172 172 172 172 172 51 51 110 110 110 110 110 24 24 26 26
 26 26 26 97 97 97 97 202 115 115 115 115 153 172 172 172 172 172 51 51
 51 110 110 170 170 66 66 66 26 26 26 228 97 97 97 97 202 202 115 115
 115 172 172 172 172 172 172 51 51 51 51 110 53 53 53 66 66 66 24 228
 228 228 97 97 97 202 202 240 240 13 172 172 172 172 172 172 51 51 51 51
 110 53 53 53 53 53 251 251 228 228 228 228 97 97 97 240 240 240 13 13
 172 172 172 172 172 51 51 51 51 170 53 53 53 53 53 251 251 251 228 228
 228 228 97 240 240 240 240 13 13 201 201 201 213 213 213 213 51 53 53 53
 53 53 53 53 251 251 251 251 228 228 228 92 92 92 92 240 13 231 201 201
 201 201 213 213 213 213 53 53 53 53 53 37 37 251 251 251 251 251 116 116
 92 92 92 92 92 231 231 201 201 201 201 201 213 213 213 53 53 53 53 37
 37 37 37 251 251 251 116 116 241 241 92 92 92 231 231 231 201 201 201 201
 201 213 213 88 53 53 53 37 37 37 37 37 251 251 251 219 219 241 241 241
 241 241 241 231 231 201 201 201 201 201 201 88 88 88 88 180 180 113 113 113
 180 180 57 57 219 219 241 241 241 241 241 241 231 231 47 201 201 201 47 47
 247 88 88 88 180 180 180 113 180 180 180 57 57 57 219 82 241 241 241 59
 59 59 47 47 47 47 47 47 247 247 88 88 88 180 180 180 113 113 180 180
 254 57 57 82 82 82 241 59 59 59 59 47 47 47 47 47 47 247 247 247
 88 88 180 180 180 113 113 113 254 254 254 254 254 82 82 82 59 59 59 59
 47 47 47 47 47 247 247 247 247 247 88 180 180 113 113 113 113 254 254 254
 254 254 254 82 82 59 59 59 59 47 47 47 47 47 247 247 247 247 247 247
 81 81 81 81 81 81 254 254 254 254 254 254 254 82 59 59 59 59 47 47
 47 47 247 247 247 247 247 247 247 81 81 81 81 81 81 254 254 254 254 254
 254 254 23 69 69 69 69 19 19 19 47 247 247 247 247 247 247 247 124 124
 81 81 81 81 81 254 254 254 254 23 23 23 69 69 69 69 19 19 19 19
 247 247 247 247 247 247 124 87 87 87 87 81 28 28 28 28 28 120 23 23
 69 69 69 69 69 19 19 19 19 204 108 93 93 93 87 87 87 87 87 87
 200 28 28 28 28 28 120 23 23 69 69 69 69 69 19 19 19 19 204 93
 93 93 93 197 87 87 87 87 87 200 200 28 28 28 28 120 23 23 23 69
 69 69 69 19 19 19 19 204 93 93 93 93 197 87 87 87 87 200 200 200
 144 144 144 144 23 23 23 23 225 69 230 230 230 19 19 19 93 93 93 93
 93 197 197 87 200 200 200 200 144 144 144 144 144 109 23 23 23 225 230 230
 230 230 230 176 255 93 93 93 93 93 197 197 157 157 157 250 250 144 144 144
 144 144 109 156 156 156 156 230 230 230 230 230 176 161 161 161 161 161 161 11
 11 157 157 157 250 250 250 144 144 144 144 109 156 156 156 156 230 230 230 230
 230 176 161 161 161 161 161 161 11 11 157 157 157 250 250 250 250 256 256 256
 256 156 156 156 156 149 230 230 230 230 230 161 161 161 161 161 161 11 11 157
 157 157 250 250 250 256 256 256 256 256 156 156 156 156 149 149 149 230 230 161
 161 161 161 161 161 161 11 11 157 157 157 250 250 256 256 256 256 256 128 128
 128 156 149 149 149 149 149 230 161 161 161 161 161 161 161 110 110 110 157 98
 98 98 98 256 256 256 256 128 128 128 128 149 149 149 149 149 172 172 172 161
 161 161 110 110 110 110 110 110 98 98 98 98 256 256 256 128 128 128 128 128
 115 115 115 115 172 172 172 172 172 172 51 51 110 110 110 110 110 66 98 98
 98 26 26 97 97 97 97 97 97 115 115 115 115 172 172 172 172 172 172 51
 51 51 110 110 110 66 66 66 66 66 26 228 228 97 97 97 97 97 97 115
 13 13 13 172 172 172 172 172 51 51 51 51 110 53 53 53 66 66 66 228
 228 228 228 228 97 97 97 97 13 13 13 13 172 172 172 172 172 51 51 51
 51 110 53 53 53 53 66 66 228 228 228 228 228 228 97 97 97 13 13 13
 13 13 172 172 172 172 51 51 51 51 53 53 53 53 53 53 53 251 228 228
 228 228 228 97 97 97 13 13 13 13 13 13 201 172 213 213 51 51 71 53
 53 53 53 53 53 251 251 251 228 228 228 228 97 92 92 92 13 13 13 201
 201 201 201 213 213 71 71 71 53 53 53 53 53 53 251 251 251 251 251 116
 241 241 92 92 92 92 13 13 201 201 201 201 201 213 71 71 71 53 53 53
 53 37 37 37 251 251 251 251 241 241 241 241 241 241 79 79 79 201 201 201
 201 201 201 88 88 71 53 53 37 37 37 37 37 251 251 251 219 241 241 241
 241 241 241 79 79 79 201 201 201 201 201 201 88 88 88 88 88 180 180 180
 180 180 180 57 57 57 241 241 241 241 241 241 79 79 79 47 47 47 47 47
 47 88 88 88 88 88 180 180 180 180 180 180 57 57 57 57 241 241 241 241
 241 241 79 79 47 47 47 47 47 47 88 88 88 88 88 180 180 180 180 180
 180 254 57 57 57 82 241 241 241 59 59 59 47 47 47 47 47 47 247 247
 88 88 88 88 180 180 180 180 180 254 254 254 254 254 254 82 241 59 59 59
 59 47 47 47 47 47 47 247 247 88 88 88 158 180 180 180 180 180 254 254
 254 254 254 254 254 82 59 59 59 59 47 47 47 47 47 247 247 247 247 158
 158 158 81 81 81 81 81 254 254 254 254 254 254 254 254 59 59 59 59 47
 47 47 47 47 247 247 247 247 158 158 158 81 81 81 81 81 254 254 254 254
 254 254 254 254 69 69 69 69 19 19 47 47 171 171 247 247 247 158 158 87
 87 87 81 81 81 56 56 254 254 254 254 23 23 69 69 69 69 19 19 19
 19 171 171 171 247 247 158 158 87 87 87 87 87 56 56 56 56 56 56 23
 23 225 225 225 225 225 19 19 19 19 171 171 171 93 93 87 87 87 87 87
 87 87 56 56 56 56 56 120 23 225 225 225 225 225 225 19 19 19 19 171
 93 93 93 93 197 87 87 87 87 87 200 56 56 56 56 56 56 23 23 225
 225 225 225 225 19 19 19 19 255 93 93 93 93 197 197 87 87 87 87 200
 56 56 56 56 56 56 23 23 225 225 225 225 230 230 19 255 255 255 93 93
 93 93 197 197 87 87 87 250 250 250 144 144 144 144 144 156 156 225 225 230
 230 230 230 230 255 255 255 93 93 93 93 197 197 157 157 250 250 250 250 144
 144 144 144 109 156 156 156 156 230 230 230 230 230 255 255 161 161 161 93 93
 197 197 157 157 250 250 250 250 250 144 144 144 144 156 156 156 156 230 230 230
 230 230 230 161 161 161 161 161 161 161 11 157 157 250 250 250 250 250 250 256
 256 156 156 156 156 156 156 230 230 230 230 230 161 161 161 161 161 161 161 11
 157 157 250 250 250 250 250 256 256 256 256 156 156 156 156 156 149 149 230 230
 161 161 161 161 161 161 161 161 11 110 157 250 250 250 250 256 256 256 256 128
 128 156 156 156 149 149 149 149 230 161 161 161 161 161 161 161 110 110 110 110
 98 98 98 98 256 256 256 256 128 128 128 128 149 149 149 149 149 172 172 172
 161 161 161 161 110 110 110 110 110 98 98 98 98 98 256 256 97 128 128 128
 128 115 115 115 13 13 172 172 172 172 172 51 51 110 110 110 110 110 98 98
 98 98 98 98 97 97 97 97 97 97 97 115 13 13 13 172 172 172 172 172
 51 51 51 110 110 162 162 66 66 66 66 98 228 228 228 97 97 97 97 97
 13 13 13 13 172 172 172 172 172 51 51 51 51 162 162 53 66 66 66 66
 66 228 228 228 228 97 97 97 97 13 13 13 13 13 172 172 172 172 51 51
 51 162 162 53 53 53 66 66 66 66 228 228 228 228 228 97 97 97 13 13
 13 13 13 172 172 172 172 51 51 162 162 162 53 53 53 53 53 66 66 228
 228 228 228 228 97 97 223 13 13 13 13 13 13 172 172 172 20 71 71 71
 53 53 53 53 53 53 53 251 251 228 228 228 228 228 223 223 223 13 13 13
 13 13 201 201 136 71 71 71 71 71 53 53 53 53 53 53 251 251 251 251
 228 241 241 241 241 223 223 223 13 201 201 201 201 136 136 71 71 71 71 53
 53 53 53 53 37 251 251 251 251 241 241 241 241 241 241 79 79 79 79 201
 201 201 201 136 71 71 71 53 88 53 37 37 37 180 251 251 251 241 241 241
 241 241 241 241 79 79 79 79 47 47 47 201 55 88 88 88 88 88 180 180
 180 180 180 180 57 57 57 241 241 241 241 241 241 79 79 79 79 47 47 47
 47 88 88 88 88 88 88 180 180 180 180 180 180 57 57 57 57 241 241 241
 241 241 79 79 79 47 47 47 47 47 88 88 88 88 88 88 180 180 180 180
 180 180 254 57 57 57 254 241 241 241 241 79 79 47 47 47 47 47 47 88
 88 88 88 88 88 180 180 180 180 180 254 254 254 254 254 254 254 241 241 241
 59 79 47 47 47 47 47 47 247 88 88 88 88 158 180 180 180 180 180 254
 254 254 254 254 254 254 241 241 59 59 59 47 47 47 47 47 171 247 158 158
 158 158 158 158 81 81 81 180 254 254 254 254 254 254 254 254 225 225 225 225
 35 47 47 47 171 171 171 158 158 158 158 158 158 81 81 81 81 254 254 254
 254 254 254 254 225 225 225 225 225 35 19 171 171 171 171 171 171 158 158 158
 87 87 87 81 81 56 56 56 56 254 254 254 23 225 225 225 225 225 19 19
 19 171 171 171 171 171 158 158 158 87 87 87 87 56 56 56 56 56 56 56
 225 225 225 225 225 225 225 225 19 19 19 171 171 171 171 93 93 87 87 87
 87 87 56 56 56 56 56 56 56 225 225 225 225 225 225 225 19 19 19 19
 171 93 93 93 197 197 197 87 87 87 87 56 56 56 56 56 56 56 159 159
 225 225 225 225 225 19 19 255 255 255 93 93 93 197 197 197 197 87 87 87
 250 56 56 56 56 56 56 159 159 159 225 225 225 225 230 255 255 255 255 93
 93 93 197 197 197 197 87 87 250 250 250 250 144 144 144 144 159 159 159 225
 225 230 230 230 255 255 255 255 93 93 93 197 197 197 197 250 250 250 250 250
 250 144 144 144 156 156 156 156 156 156 230 230 230 230 255 255 255 93 93 93
 93 197 197 157 250 250 250 250 250 250 250 250 144 156 156 156 156 156 156 230
 230 230 2 2 255 161 161 161 161 161 161 197 157 250 250 250 250 250 250 250