# vtk DataFile Version 2.0
Data set from ImportExport Version 6.5.171.b0b162591
ASCII

DATASET RECTILINEAR_GRID
DIMENSIONS 30 30 30
X_COORDINATES 30 float
-1.250000 1.250000 3.750000 6.250000 8.750000 11.250000 13.750000 16.250000 18.750000 21.250000 23.750000 26.250000 28.750000 31.250000 33.750000 36.250000 38.750000 41.250000 43.750000 46.250000 48.750000 
51.250000 53.750000 56.250000 58.750000 61.250000 63.750000 66.250000 68.750000 71.250000 
Y_COORDINATES 30 float
-1.250000 1.250000 3.750000 6.250000 8.750000 11.250000 13.750000 16.250000 18.750000 21.250000 23.750000 26.250000 28.750000 31.250000 33.750000 36.250000 38.750000 41.250000 43.750000 46.250000 48.750000 
51.250000 53.750000 56.250000 58.750000 61.250000 63.750000 66.250000 68.750000 71.250000 
Z_COORDINATES 30 float
-1.250000 1.250000 3.750000 6.250000 8.750000 11.250000 13.750000 16.250000 18.750000 21.250000 23.750000 26.250000 28.750000 31.250000 33.750000 36.250000 38.750000 41.250000 43.750000 46.250000 48.750000 
51.250000 53.750000 56.250000 58.750000 61.250000 63.750000 66.250000 68.750000 71.250000 
CELL_DATA 24389
SCALARS FeatureIds int 1
LOOKUP_TABLE default
 230 230 230 230 103 103 103 103 103 182 182 182 182 153 153 153 153 205 140 140
 140 158 158 158 158 58 58 58 58 58 230 230 126 103 103 103 103 103 182 182
 182 182 153 153 153 229 229 229 140 140 35 35 35 35 58 58 58 58 58 230
 230 119 119 119 103 103 103 182 182 182 182 153 153 153 153 229 152 152 35 35
 35 35 35 58 58 58 58 58 230 119 119 119 119 119 103 56 56 182 182 182
 91 91 153 229 152 152 152 152 35 35 35 35 35 58 58 58 58 28 28 119
 119 119 119 56 56 56 56 56 91 91 91 91 152 152 152 152 152 152 35 35
 35 35 58 58 58 28 28 28 28 119 119 109 109 56 56 56 56 91 91 91
 91 152 152 152 152 152 152 35 35 35 35 58 58 58 28 28 28 28 28 109
 109 109 109 56 56 56 56 148 148 152 152 152 152 152 152 152 35 35 35 35
 58 58 58 28 28 28 28 28 109 109 109 109 109 56 148 148 148 148 40 245
 245 245 245 245 245 245 35 35 35 209 209 171 28 28 28 28 28 109 109 109
 109 109 148 148 148 148 148 40 40 245 245 245 245 245 245 245 209 209 209 209
 209 28 28 28 31 31 178 178 178 178 109 148 148 148 148 148 40 40 40 245
 245 245 245 245 245 209 209 209 209 209 31 31 31 31 31 31 178 178 178 148
 148 148 148 148 48 48 48 48 245 245 245 245 245 209 209 209 209 209 209 31
 31 31 31 31 31 27 27 27 27 148 148 148 148 48 48 48 48 48 245 245
 23 209 209 209 209 209 209 209 31 31 31 31 31 31 27 27 27 27 148 148
 148 48 48 48 48 48 48 48 23 77 77 209 209 209 209 209 209 31 31 31
 31 31 31 27 27 27 27 27 148 148 48 48 48 102 102 102 102 77 77 77
 77 209 209 209 209 209 71 31 31 31 31 31 27 27 27 27 27 51 51 102
 102 102 102 102 102 102 77 77 77 77 77 209 209 209 71 71 71 31 31 31
 17 27 27 27 27 27 51 51 51 93 102 102 102 102 102 77 77 77 77 77
 209 71 71 71 71 71 17 17 17 17 17 17 17 101 51 51 51 51 93 93
 102 102 102 64 64 150 150 150 150 150 71 71 71 71 17 17 17 17 17 17
 17 17 17 51 51 51 51 93 93 93 102 64 64 64 150 150 150 150 150 150
 71 71 17 17 17 17 17 17 17 17 17 17 51 51 51 51 51 93 93 64
 64 64 64 150 150 150 150 150 150 150 71 17 17 17 17 17 17 17 17 17
 17 51 51 51 51 51 130 130 64 64 64 64 64 150 150 150 150 150 150 150
 17 17 17 17 17 17 17 17 17 17 17 51 51 130 130 130 130 64 64 64
 64 64 150 150 150 150 150 150 150 53 53 17 17 17 17 17 17 17 17 212
 212 130 130 130 130 130 130 64 64 64 227 227 150 150 150 38 38 53 53 53
 53 17 17 17 17 17 17 212 212 212 248 248 130 130 130 130 64 64 64 227
 227 227 227 38 38 38 53 53 53 53 53 17 17 17 17 212 212 212 212 248
 248 248 130 130 130 140 140 227 227 227 227 227 38 38 38 53 53 53 53 53
 53 17 17 212 212 212 212 212 212 248 248 248 130 140 140 140 140 227 227 227
 184 184 184 184 53 53 53 53 53 53 17 212 212 212 212 212 212 212 212 212
 248 140 140 140 140 140 158 158 158 184 184 184 184 53 230 230 230 230 230 103
 103 212 212 212 212 212 212 212 212 205 205 140 140 140 140 158 158 158 158 184
 184 235 235 230 230 230 230 230 103 103 103 212 212 212 212 212 212 212 205 205
 140 140 140 140 158 158 158 158 158 235 235 230 230 230 230 230 230 103 103 103
 103 212 182 182 182 153 153 153 205 205 140 140 140 158 158 158 158 158 235 235
 230 58 230 230 126 126 103 103 103 103 182 182 182 182 182 182 229 229 229 229
 229 140 158 158 158 158 58 58 58 58 58 230 126 126 126 103 103 103 103 103
 182 182 182 182 182 229 229 229 229 229 229 35 35 35 35 58 58 58 58 58
 58 126 126 126 126 103 103 103 103 182 182 182 182 182 229 229 229 229 229 229
 35 35 35 35 58 58 58 58 58 58 126 126 126 126 126 103 56 56 56 182
 182 182 91 229 229 229 152 152 152 35 35 35 35 35 58 58 58 58 58 126
 126 126 126 119 56 56 56 56 56 91 91 91 143 229 152 152 152 152 152 35
 35 35 35 58 58 58 28 28 28 126 126 109 109 109 56 56 56 56 56 143
 143 143 152 152 152 152 152 152 35 35 35 35 58 58 58 28 28 28 28 178
 109 109 109 109 56 56 56 56 148 143 143 152 152 152 152 152 152 216 216 216
 216 216 171 171 28 28 28 28 178 178 109 109 109 109 56 148 148 148 148 73
 245 245 245 208 245 245 216 216 216 216 216 171 171 28 28 28 31 178 178 178
 109 109 109 148 148 148 148 148 40 40 245 245 245 245 245 245 216 216 209 209
 209 209 172 31 31 31 178 178 178 178 178 178 148 148 148 148 148 40 40 245
 245 245 245 245 245 209 209 209 209 209 209 31 31 31 31 31 178 178 178 178
 178 148 148 148 148 148 48 48 48 245 245 245 245 23 209 209 209 209 209 209
 31 31 31 31 31 31 178 178 178 178 148 148 148 148 148 48 48 48 48 245
 23 23 23 209 209 209 209 209 209 31 31 31 31 31 31 31 178 178 178 148
 148 148 48 48 48 102 48 48 23 23 23 23 209 209 209 209 209 209 31 31
 31 31 31 31 31 27 27 27 27 148 148 102 102 102 102 102 102 102 23 23
 23 23 209 209 209 209 209 31 31 31 31 31 31 31 27 27 101 101 51 51
 102 102 102 102 102 102 102 23 23 23 23 209 209 209 209 209 71 71 31 31
 31 31 17 27 101 101 101 51 51 51 51 102 102 102 102 102 23 23 23 77
 77 209 71 71 71 71 71 17 17 17 17 17 17 101 101 101 51 51 51 51
 51 102 102 102 102 64 150 150 150 150 150 243 243 71 71 17 17 17 17 17
 17 17 17 101 101 51 51 51 51 51 93 102 64 64 64 150 150 150 150 150
 243 243 243 17 17 17 17 17 17 17 17 17 101 51 51 51 51 51 51 51
 64 64 64 64 150 150 150 150 150 243 243 243 17 17 17 17 17 17 17 17
 17 17 51 51 51 51 51 51 51 64 64 64 64 150 150 150 150 150 243 243
 243 53 17 17 17 17 17 17 17 17 17 51 51 51 130 130 130 130 64 64
 64 64 150 150 150 150 243 243 243 243 53 53 53 17 17 17 17 17 17 17
 212 186 186 248 130 130 130 130 64 64 64 227 227 150 150 243 38 38 38 53
 53 53 53 17 17 17 17 17 212 212 186 248 248 248 130 130 130 64 64 227
 227 227 227 227 38 38 38 53 53 53 53 53 53 17 17 212 212 212 212 212
 248 248 248 248 130 130 140 227 227 227 227 227 227 38 38 38 53 53 53 53
 53 53 53 212 212 212 212 212 212 212 248 248 248 248 140 140 140 227 227 227
 227 184 184 184 38 53 53 53 53 53 53 53 212 212 212 212 212 212 212 212
 212 248 140 140 140 140 140 227 227 227 184 184 184 184 53 230 230 53 53 53
 103 103 212 212 212 212 212 212 212 212 212 205 140 140 140 140 158 158 158 184
 184 184 184 184 230 230 230 230 230 103 103 103 212 212 212 212 212 212 212 212
 205 140 140 140 140 158 158 158 158 184 184 184 230 230 230 230 230 230 103 103
 103 103 212 182 182 182 182 153 229 229 229 140 140 140 158 158 158 158 158 58
 58 58 58 58 126 126 126 126 103 103 103 182 182 182 182 182 182 229 229 229
 229 229 229 158 158 158 158 58 58 58 58 58 58 126 126 126 126 103 103 103
 103 182 182 182 182 182 229 229 229 229 229 229 35 35 147 147 58 58 58 58
 58 58 126 126 126 126 126 103 103 103 182 182 182 182 182 229 229 229 229 229
 229 35 147 147 147 147 58 58 58 58 58 126 126 126 126 126 103 56 56 56
 182 182 182 229 229 229 229 229 152 152 147 147 147 147 147 58 58 58 171 171
 126 126 126 126 126 56 56 56 56 56 182 143 143 143 229 152 152 152 152 152
 147 147 216 216 216 58 58 171 171 171 171 126 126 109 109 56 56 56 56 143
 143 143 143 143 152 152 152 152 152 216 216 216 216 216 58 171 171 171 171 171
 178 178 109 109 109 56 56 56 143 143 143 143 143 152 245 245 245 245 216 216
 216 216 216 171 171 171 171 171 178 178 178 178 109 109 109 109 148 148 148 143
 73 73 245 245 245 245 245 216 216 216 216 216 171 171 171 171 171 178 178 178
 178 178 178 178 178 148 148 148 73 73 73 245 245 245 245 245 216 216 216 104
 104 104 171 172 31 31 31 178 178 178 178 178 178 148 148 148 148 73 73 73
 245 245 245 245 245 216 216 104 104 209 209 209 31 31 31 31 31 178 178 178
 178 178 148 148 148 148 148 73 73 245 245 245 245 23 23 23 209 209 209 209
 209 31 31 31 31 31 31 178 178 178 178 178 148 148 148 148 48 102 102 245
 23 23 23 23 23 209 209 209 209 209 31 31 31 31 31 31 31 178 178 178
 178 148 148 148 102 102 102 102 102 23 23 23 23 23 209 209 209 209 209 31
 31 31 31 31 31 31 178 178 178 101 101 185 102 102 102 102 102 102 23 23
 23 23 23 209 209 209 209 209 31 31 31 31 31 31 31 101 101 101 101 101
 51 102 102 102 102 102 102 23 23 23 23 23 23 209 209 209 209 71 31 31
 31 31 31 101 101 101 101 101 101 51 51 102 102 102 102 102 23 23 23 23
 23 23 209 209 209 209 71 125 125 125 17 17 17 101 101 101 101 51 51 51
 51 102 102 102 102 23 23 150 150 150 150 243 243 243 243 200 200 17 17 17
 17 17 101 101 101 101 51 51 51 51 51 102 102 102 64 150 150 150 150 150
 243 243 243 243 200 200 200 17 17 17 17 101 101 101 101 51 51 51 51 51
 51 102 64 64 64 150 150 150 150 243 243 243 243 200 200 200 17 17 17 17
 17 101 101 101 51 51 51 51 51 51 64 64 64 64 150 150 150 150 243 243
 243 243 53 200 200 17 17 17 17 17 17 101 186 186 186 186 51 51 130 64
 64 64 64 150 150 150 243 243 243 243 243 53 53 53 53 17 17 17 17 17
 186 186 186 186 186 186 130 130 130 115 64 64 150 150 243 243 243 243 243 243
 53 53 53 53 53 17 17 17 186 186 186 186 186 186 248 248 248 115 115 115
 227 227 227 227 38 38 38 38 53 53 53 53 53 53 53 17 212 212 212 212
 186 186 248 248 248 248 115 115 227 227 227 227 227 227 38 38 38 53 53 53
 53 53 53 53 212 212 212 212 212 212 212 248 248 248 248 140 115 115 227 227
 227 227 184 184 38 38 53 53 53 53 53 53 53 198 198 212 212 212 212 212
 212 212 212 140 140 140 140 140 227 227 227 184 184 184 184 184 53 53 53 53
 220 220 198 198 198 212 212 212 212 212 212 212 205 140 140 140 140 158 158 158
 184 184 184 184 184 230 230 230 126 126 103 103 198 198 198 212 212 212 212 212
 229 229 140 140 140 140 158 158 158 158 184 184 58 58 230 230 230 126 126 103
 103 103 103 198 182 182 182 182 229 229 229 229 229 229 140 158 158 158 158 158
 58 58 58 58 58 126 126 126 126 126 126 103 182 182 182 182 182 8 229 229
 229 229 229 229 149 158 158 158 58 58 58 58 58 126 126 126 126 126 126 126
 103 103 182 182 182 182 8 229 229 229 229 229 229 147 147 147 147 58 58 58
 58 58 126 126 126 126 126 126 126 103 103 182 182 221 221 8 229 229 229 229
 229 229 147 147 147 147 147 81 58 58 58 126 126 126 126 126 126 126 56 56
 56 221 221 221 221 229 229 229 229 229 152 147 147 147 147 147 81 58 58 171
 171 171 126 126 126 126 56 56 56 56 221 221 143 143 143 229 229 152 152 152
 147 147 216 216 216 81 81 81 171 171 171 171 126 126 109 109 56 56 56 221
 143 143 143 143 143 152 152 152 152 216 216 216 216 216 81 81 171 171 171 171
 171 178 178 178 109 109 56 56 56 143 143 143 143 143 152 245 245 245 216 216
 216 216 216 216 171 171 171 171 171 171 178 178 178 178 178 178 178 178 143 143
 73 73 73 245 245 245 245 216 216 216 216 216 104 171 171 171 171 171 171 178
 178 178 178 178 178 178 148 148 73 73 73 73 245 245 245 245 245 216 216 104
 104 104 104 171 172 172 172 31 31 178 178 178 178 178 178 148 148 73 73 73
 73 73 245 245 245 245 216 104 104 104 104 104 171 172 172 31 31 31 31 178
 178 178 178 178 148 148 73 73 73 73 73 245 245 23 23 23 23 104 104 104
 104 172 172 31 31 31 31 31 178 178 178 178 178 148 148 185 185 73 73 102
 23 23 23 23 23 23 23 209 209 209 209 172 31 31 31 31 31 31 178 178
 178 178 185 185 185 185 102 102 102 102 23 23 23 23 23 209 209 209 209 209
 31 31 31 31 31 31 31 178 178 101 101 185 185 185 185 102 102 102 102 23
 23 23 23 23 23 209 209 209 209 31 31 31 31 31 31 31 101 101 101 101
 101 185 185 102 102 102 102 102 23 23 23 23 23 23 209 209 209 209 125 125
 125 125 125 125 125 101 101 101 101 101 51 51 102 102 102 102 102 23 23 23
 23 23 23 243 243 243 243 125 125 125 125 125 125 101 101 101 101 101 101 51
 51 51 102 102 102 102 23 23 23 23 150 243 243 243 243 243 200 200 125 125
 125 17 101 101 101 101 101 101 51 51 51 51 102 102 52 52 150 150 150 150
 243 243 243 243 243 200 200 200 200 17 17 17 101 101 101 101 101 51 51 51
 51 51 51 52 64 150 150 150 150 243 243 243 243 243 200 200 200 200 200 17
 17 101 101 101 101 101 51 51 51 51 51 51 64 64 150 150 150 243 243 243
 243 243 243 200 200 200 200 200 17 17 101 101 101 101 186 186 186 186 186 186
 115 115 224 224 150 243 243 243 243 243 243 243 200 200 200 200 200 17 17 17
 101 186 186 186 186 186 186 186 186 115 115 115 115 243 243 243 243 243 243 243
 243 53 53 53 53 53 17 17 198 186 186 186 186 186 186 186 186 115 115 115
 115 115 227 227 243 243 38 38 38 38 53 53 53 53 53 53 198 198 198 198
 186 186 186 186 186 248 248 115 115 115 115 227 227 227 227 38 38 38 53 53
 53 53 53 53 220 198 198 198 198 212 186 186 186 186 248 115 115 115 115 115
 227 227 227 184 184 38 38 53 53 53 53 53 220 198 198 198 198 198 212 212
 212 212 212 212 83 115 115 115 115 227 227 227 184 184 184 184 184 53 53 53
 220 220 220 198 198 198 198 198 212 212 212 212 212 229 229 140 140 149 149 158
 158 184 184 184 184 184 230 230 220 126 126 126 198 198 198 198 198 212 212 212
 212 229 229 229 229 149 149 149 158 158 158 184 58 58 58 230 230 126 126 126
 126 126 198 198 198 198 198 182 182 229 229 229 229 229 229 149 149 158 158 158
 58 58 58 58 58 126 126 126 191 191 126 126 198 198 198 182 182 8 8 8
 8 229 229 229 149 149 149 147 147 81 58 58 58 58 126 126 126 126 126 126
 126 126 198 204 221 221 221 8 8 8 229 229 229 149 147 147 147 147 81 81
 81 58 58 126 126 126 126 126 126 126 126 204 204 221 221 221 221 8 8 229
 229 229 229 147 147 147 147 81 81 81 58 171 171 126 126 126 126 126 126 204
 204 204 221 221 221 221 8 8 229 229 229 147 147 147 147 147 81 81 81 81
 171 171 171 126 126 126 126 126 204 204 204 221 221 221 221 143 143 229 152 152
 152 147 147 147 216 81 81 81 81 171 171 171 171 126 126 178 109 56 204 204
 221 221 143 143 143 143 143 152 152 152 216 216 216 216 216 81 81 171 171 171
 171 171 171 178 178 178 178 178 178 221 221 143 143 143 143 143 245 245 245 216
 216 216 216 189 189 171 171 171 171 171 171 171 178 178 178 178 178 178 178 221
 73 73 73 73 73 245 245 245 216 216 216 216 189 104 171 171 171 171 171 171
 178 178 178 178 178 178 178 178 148 73 73 73 73 73 245 245 245 66 216 216
 104 104 104 104 171 172 172 172 172 31 178 178 178 178 178 178 148 148 73 73
 73 73 73 232 245 66 66 66 104 104 104 104 104 172 172 172 172 31 31 31
 178 178 178 178 178 148 148 73 73 73 73 232 232 23 23 23 23 104 104 104
 104 104 172 172 172 31 31 31 31 31 178 178 178 178 185 185 185 185 231 231
 232 232 23 23 23 23 23 104 104 104 104 172 172 31 31 31 31 31 31 178
 178 178 178 185 185 185 185 231 231 231 136 23 23 23 23 23 23 209 209 209
 209 31 31 31 31 31 31 31 178 101 101 101 185 185 185 185 231 231 231 23
 23 23 23 23 23 23 23 209 209 209 125 125 125 125 125 125 31 101 101 101
 101 101 185 185 185 231 231 102 23 23 23 23 23 23 23 23 209 209 29 125
 125 125 125 125 125 101 101 101 101 101 101 185 185 185 231 102 102 102 23 23
 23 23 23 23 243 243 29 29 125 125 125 125 125 125 101 101 101 101 101 101
 101 51 51 102 102 102 52 52 23 23 23 23 243 243 243 243 29 200 200 125
 125 125 125 101 101 101 101 101 101 101 51 51 51 102 52 52 52 52 23 150
 243 243 243 243 243 243 200 200 200 200 200 200 101 101 101 101 101 101 101 51
 51 51 51 52 52 52 52 150 150 243 243 243 243 243 243 200 200 200 200 200
 200 32 101 101 101 101 101 128 128 51 51 51 137 52 52 224 224 243 243 243
 243 243 243 243 200 200 200 200 200 200 32 32 101 101 101 128 128 128 128 128
 128 115 115 224 224 224 243 243 243 243 243 243 243 200 200 200 200 200 200 32
 32 168 186 186 186 186 186 128 128 115 115 115 115 224 224 224 243 243 243 243
 243 243 200 200 200 200 200 200 198 198 168 186 186 186 186 186 186 186 115 115
 115 115 115 224 224 243 243 243 243 243 243 53 53 53 53 220 220 198 198 198
 198 186 186 186 186 186 186 115 115 115 115 115 115 227 227 96 96 96 38 53
 37 53 53 220 220 220 198 198 198 198 198 186 186 186 186 83 115 115 115 115
 115 115 227 96 96 96 96 96 96 37 53 220 220 220 198 198 198 198 198 198
 198 186 186 83 83 83 115 115 115 115 149 149 96 96 96 96 96 96 37 220
 220 220 220 220 198 198 198 198 198 198 212 212 83 83 83 115 115 149 149 149
 149 149 96 96 96 96 96 220 220 220 220 220 220 198 198 198 198 198 198 212
 212 8 8 8 229 149 149 149 149 149 149 96 96 96 96 96 220 220 220 191
 191 191 126 198 198 198 198 198 198 8 8 8 8 229 229 229 149 149 149 149
 96 58 58 58 58 58 191 191 191 191 191 191 191 198 198 198 182 8 8 8
 8 8 8 8 8 149 149 149 149 81 81 81 26 26 58 126 126 191 191 191
 191 191 126 204 204 221 221 221 8 8 8 8 8 8 149 149 147 147 81 81
 81 26 26 171 126 126 126 191 191 191 191 204 204 204 221 221 221 8 8 8
 8 8 8 8 147 147 147 81 81 81 26 26 171 171 126 126 126 191 191 191
 204 204 204 221 221 221 221 8 8 8 8 8 8 147 147 147 81 81 81 81
 26 171 171 171 72 72 126 191 191 204 204 204 221 221 221 221 221 8 8 8
 8 152 147 147 147 81 81 81 81 26 171 171 171 72 72 72 163 163 204 204
 204 221 221 221 221 143 143 8 8 152 218 216 216 216 189 189 189 171 171 171
 171 171 171 72 178 163 163 163 178 204 221 221 221 143 143 143 143 245 218 218
 216 216 189 189 189 189 171 171 171 171 171 171 171 178 178 163 163 178 178 221
 221 73 73 73 73 232 232 66 66 66 216 189 189 189 189 171 171 171 171 171
 171 171 178 178 178 178 178 178 178 73 73 73 73 73 232 232 66 66 66 66
 189 189 104 104 104 171 172 172 172 172 31 178 178 178 178 178 178 178 73 73
 73 73 232 232 232 66 66 66 66 66 104 104 104 104 172 172 172 172 31 31
 31 178 178 178 178 178 178 185 73 73 73 232 232 232 232 66 66 66 104 104
 104 104 104 172 172 172 172 31 31 31 31 178 178 178 178 185 185 185 185 231
 232 232 232 136 23 23 23 23 213 213 213 213 172 172 172 31 31 31 31 31
 178 178 178 185 185 185 185 185 231 231 231 136 136 23 23 23 23 213 213 213
 213 172 125 125 125 125 31 31 31 31 101 101 101 185 185 185 185 231 231 231
 136 136 23 23 23 23 23 213 213 213 172 125 125 125 125 125 125 31 101 101
 101 101 185 185 185 185 231 231 231 136 136 23 23 23 23 23 23 29 29 29
 125 125 125 125 125 125 125 101 101 101 101 101 185 185 185 231 231 52 52 52
 23 23 23 23 139 29 29 29 29 29 125 125 125 125 125 101 101 101 101 101
 101 101 185 185 231 231 52 52 52 52 52 139 139 139 29 29 29 29 29 125
 125 125 125 125 101 101 101 101 101 101 101 51 51 51 52 52 52 52 52 52
 139 139 139 243 29 29 29 200 200 200 200 200 32 32 101 101 101 101 101 101
 128 128 128 52 52 52 52 52 52 139 139 243 243 243 29 29 200 200 200 200
 200 32 32 168 168 168 168 168 128 128 128 128 128 137 52 52 52 224 145 243
 243 243 243 243 243 200 200 200 200 200 32 32 32 168 168 168 128 128 128 128
 128 128 115 115 52 224 224 224 145 243 243 243 243 243 200 200 200 200 200 32
 32 32 168 168 168 128 128 128 128 128 128 115 115 115 224 224 224 145 145 243
 243 243 243 37 37 37 37 37 32 32 32 168 168 186 186 186 128 128 128 128
 115 115 115 115 224 224 145 145 243 243 243 37 37 37 37 37 220 220 198 198
 198 198 186 186 186 186 83 83 83 115 115 115 115 115 224 96 96 96 96 96
 37 37 37 37 220 220 220 198 198 198 198 198 186 186 83 83 83 83 115 115
 115 115 115 115 96 96 96 96 96 96 37 37 220 220 220 220 198 198 198 198
 198 198 83 83 83 83 83 115 115 115 115 149 149 96 96 96 96 96 96 37
 220 220 220 220 220 198 198 198 198 198 198 83 83 83 83 83 8 115 149 149
 149 149 96 96 96 96 96 96 220 220 220 220 220 220 198 198 198 198 198 198
 198 83 83 8 8 8 8 149 149 149 149 149 96 96 96 96 96 220 220 220
 220 191 191 191 198 198 198 198 198 198 8 8 8 8 8 8 149 149 149 149
 149 96 96 96 96 96 220 220 220 191 191 191 191 191 198 198 204 204 8 8
 8 8 8 8 8 8 149 149 149 50 81 81 26 26 26 26 220 220 191 191
 191 191 191 204 204 204 204 221 8 8 8 8 8 8 8 149 149 149 81 81
 81 26 26 26 26 26 191 191 191 191 191 191 204 204 204 204 221 221 8 8
 8 8 8 8 8 147 147 81 81 81 26 26 26 26 26 72 72 191 191 191
 191 204 204 204 204 221 221 221 8 8 8 8 8 8 147 147 81 81 81 81
 26 26 171 171 72 72 72 72 191 204 204 204 204 204 221 221 221 221 8 8
 8 8 218 218 189 189 81 81 81 26 26 171 171 72 72 72 72 163 163 163
 204 204 204 221 221 221 221 8 8 8 218 218 218 189 189 189 189 189 26 171
 171 171 171 72 72 163 163 163 163 163 204 221 221 221 221 143 47 47 47 218
 218 218 189 189 189 189 189 189 171 171 171 171 171 72 163 163 163 163 163 163
 221 221 73 73 73 232 232 232 218 218 66 189 189 189 189 189 189 171 171 171
 171 171 171 163 163 163 163 163 178 187 187 73 73 232 232 232 232 66 66 66
 66 189 189 189 104 104 171 172 172 172 172 31 163 163 163 163 163 178 187 187
 73 73 232 232 232 232 66 66 66 66 66 213 104 104 104 172 172 172 172 172
 31 31 31 178 178 178 178 187 185 185 73 232 232 232 232 232 66 66 66 213
 213 213 213 104 172 172 172 172 31 31 31 31 178 178 226 226 185 185 185 185
 232 232 232 232 136 136 66 66 213 213 213 213 213 172 172 172 31 31 31 31
 31 31 226 226 226 185 185 185 185 231 231 136 136 136 136 23 23 213 213 213
 213 213 213 125 125 125 125 125 31 31 226 226 226 226 185 185 185 185 231 231
 136 136 136 136 23 23 23 213 213 213 213 213 125 125 125 125 181 181 181 101
 226 101 101 185 185 185 185 231 231 136 136 136 136 23 23 23 213 213 213 29
 29 29 125 125 125 125 181 181 101 101 101 101 101 185 185 185 11 11 52 52
 52 52 52 139 139 139 29 29 29 29 29 125 125 125 125 125 125 101 101 101
 101 157 157 157 11 11 11 52 52 52 52 52 139 139 139 29 29 29 29 29
 125 125 125 125 125 101 101 101 101 101 157 157 157 11 11 52 52 52 52 52
 52 139 139 139 29 29 29 29 29 200 200 200 125 32 32 168 168 168 168 168
 157 128 128 128 52 52 52 52 52 52 139 139 139 29 29 29 29 200 200 200
 200 32 32 32 32 168 168 168 168 128 128 128 128 137 137 52 52 52 52 145
 145 145 243 29 29 29 200 200 200 200 32 32 32 32 168 168 168 128 128 128
 128 128 128 137 52 52 224 224 145 145 145 145 243 243 29 37 37 200 200 32
 32 32 32 168 168 168 128 128 128 128 128 128 115 115 115 224 224 145 145 145
 145 243 243 37 37 37 37 37 37 32 32 32 168 168 128 128 128 128 128 128
 128 115 115 115 115 224 145 145 145 145 96 96 37 37 37 37 37 220 220 220
 198 198 198 128 128 128 128 83 83 83 115 115 115 115 115 145 145 96 96 96
 96 37 37 37 37 220 220 220 220 198 198 198 198 198 83 83 83 83 83 115
 115 115 115 115 96 96 96 96 96 96 37 37 37 220 220 220 220 220 198 198
 198 198 198 83 83 83 83 83 115 115 115 115 149 96 96 96 96 96 96 96
 37 220 220 220 220 220 220 198 198 198 198 198 83 83 83 83 83 111 111 111
 149 149 149 96 96 96 96 96 96 220 220 220 220 220 220 220 198 198 198 198
 198 83 83 83 8 8 8 111 111 149 149 149 96 96 96 96 96 96 220 220
 220 220 220 220 220 198 198 198 198 198 198 8 8 8 8 8 8 111 149 149
 149 149 96 96 96 96 96 220 220 220 220 220 191 191 191 160 160 160 57 57
 57 57 8 8 8 8 111 111 111 111 50 50 50 50 26 26 26 220 220 191
 191 191 191 191 160 160 204 204 57 57 57 8 8 8 8 8 111 111 111 50
 50 50 26 26 26 26 26 72 191 191 191 191 191 204 204 204 204 57 57 57
 8 8 8 8 8 8 129 129 81 81 81 26 26 26 26 72 72 72 72 191
 191 204 204 204 204 204 221 221 221 8 8 8 8 8 129 129 129 81 81 81
 26 26 26 26 72 72 72 72 72 163 204 204 204 204 204 221 221 221 221 8
 8 8 8 218 218 189 189 189 189 26 26 26 171 171 72 72 72 72 163 163
 163 204 204 204 221 221 221 221 47 47 47 218 218 218 189 189 189 189 189 26
 26 171 171 72 72 72 163 163 163 163 163 204 204 221 221 221 47 47 47 47
 218 218 218 218 189 189 189 189 189 171 171 171 171 72 72 163 163 163 163 163
 163 187 187 187 187 47 47 47 47 218 218 218 218 189 189 189 189 189 171 171
 171 171 171 72 163 163 163 163 163 163 187 187 187 187 232 232 232 47 218 66
 66 66 189 189 189 189 189 171 172 172 172 172 31 163 163 163 163 163 187 187
 187 187 187 232 232 232 232 66 66 66 66 66 213 213 213 213 172 172 172 172
 172 31 31 163 163 163 226 187 187 187 187 187 232 232 232 232 1 66 66 66
 213 213 213 213 213 172 172 172 172 31 31 31 31 226 226 226 226 187 187 187
 187 42 232 232 1 1 1 66 66 213 213 213 213 213 213 172 172 31 31 31
 31 226 226 226 226 226 226 185 185 42 42 42 136 136 136 136 188 188 213 213
 213 213 213 213 29 125 181 181 181 181 181 226 226 226 226 226 185 185 42 42
 42 136 136 136 136 136 188 213 213 213 213 213 213 29 125 181 181 181 181 181
 226 226 226 226 226 185 185 42 42 42 136 136 136 136 136 188 201 201 201 201
 201 29 29 125 125 181 181 181 181 226 226 226 157 157 157 185 11 11 11 52
 52 52 52 52 139 139 201 201 29 29 29 29 125 125 181 181 181 181 226 226
 157 157 157 157 157 11 11 11 52 52 52 52 52 139 139 139 29 29 29 29
 29 29 125 125 125 181 168 168 168 168 157 157 157 157 11 11 52 52 52 52
 52 52 139 139 139 29 29 29 29 29 200 200 200 32 32 32 168 168 168 168
 157 157 128 128 137 137 137 52 52 52 52 139 139 139 29 29 29 29 29 200
 200 200 32 32 32 32 168 168 168 168 128 128 128 128 137 137 137 52 52 52
 145 145 145 29 29 29 29 200 200 200 200 32 32 32 32 168 168 168 128 128
 128 128 128 137 137 137 137 224 145 145 145 145 145 243 29 29 37 37 37 200
 32 32 32 32 168 168 168 128 128 128 128 128 128 137 137 137 224 145 145 145
 145 145 145 37 37 37 37 37 37 37 32 32 32 168 168 128 128 128 128 128
 128 128 115 115 115 115 145 145 145 145 145 96 96 37 37 37 37 37 220 220
 220 220 168 168 128 128 128 83 83 83 83 115 115 115 115 145 145 145 96 96
 96 96 37 37 37 37 220 220 220 220 220 198 198 198 128 83 83 83 83 83
 83 115 115 115 115 96 96 96 96 96 96 37 37 37 220 220 220 220 220 220
 198 198 198 198 83 83 83 83 83 83 111 111 111 111 96 96 96 96 96 96
 96 37 220 220 220 220 220 220 220 198 198 198 198 83 83 83 83 83 111 111
 111 111 111 96 96 96 96 96 96 96 220 220 220 220 220 220 220 220 43 198
 198 198 83 83 83 83 8 111 111 111 111 111 149 96 96 96 96 96 96 220
 220 220 220 220 220 220 220 43 198 198 198 57 57 8 8 8 8 111 111 111
 111 149 50 50 50 96 96 96 220 220 220 220 220 220 220 160 160 160 160 57
 57 57 57 57 8 8 111 111 111 111 111 50 50 50 50 50 26 26 220 220
 220 220 68 68 160 160 160 160 57 57 57 57 57 8 8 8 111 111 111 50
 50 50 50 50 26 26 26 26 72 72 68 68 68 160 160 160 160 204 57 57
 57 57 8 8 8 129 129 129 129 141 141 141 26 26 26 26 26 72 72 72
 68 68 204 204 204 204 204 57 57 57 8 8 8 8 129 129 129 129 141 141
 141 26 26 26 26 72 72 72 72 72 163 163 204 204 204 204 221 221 221 8
 8 8 47 129 129 129 129 189 141 141 26 26 26 171 72 72 72 72 72 163
 163 163 204 204 204 221 221 221 47 47 47 47 218 218 218 218 189 189 189 189
 26 26 171 171 72 72 72 163 163 163 163 163 163 187 187 187 47 47 47 47
 47 218 218 218 218 189 189 189 189 189 171 171 171 171 72 72 163 163 163 163
 163 163 187 187 187 187 47 47 47 47 218 218 218 218 189 189 189 189 189 76
 171 171 171 171 72 163 163 163 163 163 163 187 187 187 187 47 47 47 47 218
 218 218 218 218 189 189 189 76 76 172 172 172 172 72 163 163 163 163 163 187
 187 187 187 187 187 232 232 1 1 66 66 66 66 213 213 213 76 76 172 172
 172 172 100 100 163 163 163 226 187 187 187 187 187 187 232 232 1 1 1 66
 66 213 213 213 213 213 76 172 172 172 31 31 226 226 226 226 226 226 187 187
 187 187 42 42 1 1 1 1 1 66 213 213 213 213 213 213 20 172 181 181
 181 226 226 226 226 226 226 226 187 42 42 42 42 1 1 1 1 188 188 213
 213 213 213 213 213 20 20 181 181 181 181 226 226 226 226 226 226 185 42 42
 42 42 42 136 136 136 188 188 188 201 201 201 201 20 29 181 181 181 181 181
 226 226 226 226 226 226 185 42 42 42 42 42 136 136 136 188 188 201 201 201
 201 201 201 29 125 181 181 181 181 226 226 226 226 157 157 157 11 11 11 11
 11 52 52 52 188 139 201 201 201 201 29 29 29 125 181 181 181 181 226 226
 226 157 157 157 157 157 11 11 11 52 52 52 52 52 139 139 201 201 201 29
 29 29 29 125 125 181 181 168 168 168 168 157 157 157 157 11 11 137 52 52
 52 52 52 139 139 139 29 29 29 29 29 29 200 79 32 32 32 168 168 168
 168 157 157 128 128 137 137 137 137 52 52 52 139 139 139 29 29 29 29 29
 200 200 200 32 32 32 32 168 168 168 168 128 128 128 137 137 137 137 137 52
 52 145 145 145 29 29 29 29 37 200 200 200 32 32 32 32 168 168 168 128
 128 128 128 128 137 137 137 137 52 145 145 145 145 145 29 29 29 37 37 54
 54 32 32 32 32 168 168 168 128 128 128 128 128 137 137 137 137 137 145 145
 145 145 145 145 37 37 37 54 54 54 54 32 32 32 168 168 98 128 128 128
 128 128 128 137 115 115 115 145 145 145 145 145 96 96 37 37 37 54 220 220
 220 220 220 43 168 98 128 128 83 83 83 83 83 115 115 115 145 145 145 96
 96 96 96 37 37 37 37 220 220 220 220 220 43 43 43 128 83 83 83 83
 83 83 111 111 111 111 96 96 96 96 96 96 37 37 37 220 220 220 220 220
 220 43 43 43 43 83 83 83 83 83 111 111 111 111 111 96 96 96 96 96
 96 96 37 220 220 220 220 220 220 43 43 43 43 43 83 83 83 83 83 111
 111 111 111 111 111 96 96 96 96 96 96 220 220 220 220 220 220 220 43 43
 43 43 43 83 83 83 83 111 111 111 111 111 111 111 96 96 96 96 96 96
 220 220 220 220 220 220 220 43 43 43 43 57 57 57 57 8 8 111 111 111
 111 111 111 50 50 50 50 96 96 220 220 220 220 68 68 68 160 160 160 160
 57 57 57 57 57 8 111 111 111 111 111 111 50 50 50 50 50 26 26 68
 68 68 68 68 68 160 160 160 160 57 57 57 57 57 8 8 111 111 111 129
 129 50 50 50 50 26 26 26 68 68 68 68 68 68 68 160 160 160 57 57
 57 57 57 8 8 129 129 129 129 129 141 141 141 141 26 26 26 199 199 199
 68 68 68 68 160 160 160 57 57 57 57 57 8 8 129 129 129 129 129 141
 141 141 141 26 26 26 199 199 199 199 199 177 177 177 177 204 204 57 57 57
 57 47 129 129 129 129 129 129 129 141 141 141 26 26 76 199 199 199 199 199
 177 177 177 177 204 204 221 221 47 47 47 47 47 218 218 218 218 189 189 189
 189 26 26 76 199 199 199 199 163 163 163 163 163 163 187 187 187 47 47 47
 47 47 218 218 218 218 218 189 189 76 76 76 76 76 199 199 199 163 163 163
 163 163 187 187 187 187 187 47 47 47 47 218 218 59 218 218 189 189 76 76
 76 76 76 199 199 100 100 100 100 100 100 187 187 187 187 187 187 47 47 47
 218 218 218 218 218 189 76 76 76 76 76 76 76 199 100 100 100 100 100 100