# vtk DataFile Version 2.0
Data set from ImportExport Version 6.5.171.b0b162591
ASCII

DATASET RECTILINEAR_GRID
DIMENSIONS 30 30 30
X_COORDINATES 30 float
-1.250000 1.250000 3.750000 6.250000 8.750000 11.250000 13.750000 16.250000 18.750000 21.250000 23.750000 26.250000 28.750000 31.250000 33.750000 36.250000 38.750000 41.250000 43.750000 46.250000 48.750000 
51.250000 53.750000 56.250000 58.750000 61.250000 63.750000 66.250000 68.750000 71.250000 
Y_COORDINATES 30 float
-1.250000 1.250000 3.750000 6.250000 8.750000 11.250000 13.750000 16.250000 18.750000 21.250000 23.750000 26.250000 28.750000 31.250000 33.750000 36.250000 38.750000 41.250000 43.750000 46.250000 48.750000 
51.250000 53.750000 56.250000 58.750000 61.250000 63.750000 66.250000 68.750000 71.250000 
Z_COORDINATES 30 float
-1.250000 1.250000 3.750000 6.250000 8.750000 11.250000 13.750000 16.250000 18.750000 21.250000 23.750000 26.250000 28.750000 31.250000 33.750000 36.250000 38.750000 41.250000 43.750000 46.250000 48.750000 
51.250000 53.750000 56.250000 58.750000 61.250000 63.750000 66.250000 68.750000 71.250000 
CELL_DATA 24389
SCALARS FeatureIds int 1
LOOKUP_TABLE default
 219 219 219 219 219 72 72 72 241 241 101 101 141 141 244 244 244 244 244 244
 244 75 75 251 251 251 251 219 219 219 219 219 219 219 72 72 72 72 101 101
 101 141 141 141 244 244 244 244 244 244 75 75 75 251 251 251 219 219 219 219
 219 219 72 72 72 72 72 101 101 101 141 141 141 30 30 30 30 30 30 75
 75 234 234 234 251 219 219 219 219 219 33 72 72 72 72 72 101 101 101 141
 141 141 30 30 30 30 30 30 89 234 234 234 234 234 219 219 37 33 33 33
 33 72 72 72 72 101 101 101 101 141 141 30 30 30 30 30 89 89 234 234
 234 234 234 37 37 37 33 33 33 33 33 72 72 72 101 101 101 101 141 141
 30 30 30 30 30 89 89 234 234 234 234 234 37 37 37 33 33 33 33 33
 33 72 72 248 101 101 101 49 49 30 30 202 202 202 89 89 89 234 234 234
 37 37 37 37 33 33 33 33 33 44 44 248 248 248 248 49 49 49 225 202
 202 202 202 202 202 89 234 234 234 37 37 37 137 137 33 33 33 33 44 44
 248 248 248 49 49 49 49 225 225 202 202 202 202 202 202 234 234 37 37 37
 37 137 137 137 33 33 33 44 7 7 7 7 49 49 49 49 225 225 202 202
 202 202 202 202 202 234 37 37 37 137 137 137 137 33 33 33 7 7 7 7
 7 7 49 49 49 225 225 202 202 202 202 202 202 202 91 91 91 91 137 137
 137 137 116 33 33 7 7 7 7 7 7 49 49 49 93 93 202 202 202 202
 202 202 202 91 91 91 91 91 91 91 116 116 116 116 7 7 22 22 22 7
 7 93 93 93 93 42 42 42 42 42 42 42 91 91 91 91 91 91 116 116
 116 116 116 22 22 22 22 22 22 22 93 93 93 93 42 42 42 42 42 42
 42 91 91 91 91 91 91 116 116 116 116 116 168 22 22 22 22 22 222 93
 93 93 93 42 42 42 42 42 42 42 91 91 91 91 91 91 116 116 116 116
 168 168 168 22 22 22 222 222 222 222 93 93 77 77 42 42 42 42 100 100
 91 91 91 91 192 116 116 95 95 168 168 168 168 22 22 222 222 222 222 222
 77 77 77 77 77 77 62 100 100 100 100 91 91 192 184 95 95 95 95 95
 95 95 173 222 222 222 222 222 222 77 77 77 77 77 62 62 62 62 100 100
 100 91 184 184 95 95 95 95 95 95 95 95 173 222 222 222 222 222 174 174
 174 77 77 62 62 62 62 62 100 100 192 184 184 184 95 95 95 95 95 95
 95 173 173 222 222 222 174 174 174 174 174 174 62 62 62 62 62 62 79 79
 184 184 184 95 95 95 95 95 95 95 173 173 209 209 209 209 174 174 174 174
 105 62 62 62 62 62 79 79 79 184 184 184 95 95 95 95 95 95 95 173
 209 209 209 209 209 209 174 105 105 105 105 62 62 62 62 79 79 79 184 184
 184 184 95 95 95 95 95 5 5 209 209 209 209 209 209 105 105 105 105 105
 105 62 27 47 79 79 79 184 184 184 184 180 180 180 180 180 5 5 5 209
 209 209 209 209 105 105 105 105 105 105 27 251 251 251 251 251 184 184 184 180
 180 180 180 180 180 5 5 5 5 209 238 238 238 105 105 105 105 105 105 251
 251 251 251 251 251 219 219 180 180 180 180 180 180 180 5 5 5 5 5 238
 238 238 238 105 105 105 105 251 251 251 251 251 251 251 219 219 219 180 180 180
 180 180 180 5 5 5 5 238 238 238 238 238 105 105 105 251 251 251 251 251
 251 251 251 219 219 219 219 180 180 180 180 180 5 5 5 5 238 238 238 238
 244 244 244 244 251 251 251 251 251 251 251 219 219 219 219 219 180 180 180 180
 180 5 5 5 5 238 238 244 244 244 244 244 244 251 251 251 251 251 251 251
 219 219 219 219 219 219 246 241 241 241 241 241 101 141 141 244 244 244 244 244
 244 244 251 251 251 251 251 251 251 219 219 219 219 219 219 246 72 241 241 241
 101 101 141 141 141 244 244 244 244 244 244 75 251 251 251 251 251 219 219 219
 219 219 219 33 72 72 241 241 101 101 101 141 141 141 30 30 244 30 30 30
 30 234 234 234 234 251 219 219 219 219 33 33 33 72 72 72 241 101 101 101
 141 141 141 30 30 30 30 30 30 89 234 234 234 234 234 219 219 37 33 33
 33 33 33 72 72 72 101 101 101 101 141 141 30 30 30 30 30 30 89 234
 234 234 234 234 37 37 37 33 33 33 33 33 33 72 43 101 101 101 101 141
 141 30 30 30 30 30 30 89 234 234 234 234 37 37 37 37 33 33 33 33
 33 33 33 43 101 101 101 101 49 49 30 30 30 30 30 89 89 234 234 234
 234 37 37 37 37 33 33 33 33 33 33 33 248 248 248 49 49 49 49 49
 202 202 202 202 202 202 234 234 234 37 37 37 37 137 137 33 33 33 33 33
 33 248 248 248 49 49 49 49 49 49 202 202 202 202 202 202 234 234 37 37
 37 37 137 137 137 33 33 33 33 11 7 7 7 49 49 49 49 49 49 97
 97 97 202 202 202 202 206 37 37 37 137 137 137 137 33 33 33 11 7 7
 7 7 49 49 49 49 49 186 186 97 97 97 202 202 202 206 206 91 137 137
 137 137 116 116 116 116 11 22 22 22 22 49 49 49 93 93 186 186 186 97
 97 97 97 206 206 91 91 91 91 91 116 116 116 116 116 116 22 22 22 22
 22 49 93 93 93 93 186 186 42 42 42 42 42 91 91 91 91 91 116 116
 116 116 116 116 116 22 22 22 22 22 22 93 93 93 93 93 42 42 42 42
 42 42 91 91 91 91 91 116 116 116 116 116 116 116 22 22 22 22 22 22
 93 93 93 93 93 42 42 42 42 42 99 100 91 91 91 91 116 116 116 116
 116 116 168 22 22 22 22 22 222 222 222 93 93 77 77 77 77 99 99 100
 100 100 100 91 91 192 116 116 116 116 95 168 168 22 22 22 222 222 222 222
 222 77 77 77 77 77 77 99 100 100 100 100 100 91 192 192 116 95 95 95
 95 95 173 173 173 222 222 222 222 222 77 77 77 77 77 245 62 62 100 100
 100 100 192 192 184 95 95 95 95 95 95 173 173 173 222 222 222 222 222 174
 174 174 77 245 245 62 62 62 100 100 100 192 184 184 95 95 95 95 95 95
 173 173 173 173 222 222 222 174 174 174 174 174 245 245 62 62 62 62 100 100
 192 184 184 184 95 95 95 95 95 95 173 173 173 209 209 209 209 174 174 174
 174 245 245 62 62 62 62 62 79 79 184 184 184 95 95 95 95 95 95 173
 173 209 209 209 209 209 209 174 105 105 105 105 62 62 62 47 47 79 79 184
 184 184 184 95 95 95 95 95 5 5 209 209 209 209 209 209 105 105 105 105
 105 27 27 27 47 47 47 47 184 184 184 180 180 180 180 180 180 5 5 5
 209 209 209 209 209 105 105 105 105 105 27 27 27 47 47 47 47 184 184 180
 180 180 180 180 180 180 5 5 5 5 209 209 209 209 105 105 105 105 105 27
 27 251 251 251 251 251 219 219 180 180 180 180 180 180 180 5 5 5 5 5
 238 238 238 105 105 105 105 105 251 251 251 251 251 251 251 219 219 219 180 180
 180 180 180 180 5 5 5 5 5 238 238 238 238 105 105 105 105 251 251 251
 251 251 251 251 219 219 219 180 180 180 180 180 180 5 5 5 5 5 238 238
 238 244 244 244 244 251 251 251 251 249 251 251 251 219 219 219 219 180 180 180
 180 180 5 5 5 5 5 238 244 244 244 244 244 244 251 251 251 251 251 251
 251 219 219 219 219 246 246 246 241 241 241 241 241 241 141 141 244 244 244 244
 244 244 244 64 251 251 251 251 251 251 219 219 219 219 246 246 246 241 241 241
 241 241 101 141 141 141 244 244 244 244 244 64 64 64 251 251 251 251 251 219
 219 219 246 246 246 246 241 241 241 241 101 101 141 141 141 30 244 244 244 30
 30 64 64 234 234 234 251 251 219 219 219 33 33 33 33 241 241 241 101 101
 101 141 141 141 30 30 30 30 30 30 64 234 234 234 234 234 37 37 37 33
 33 33 33 33 43 43 43 101 101 101 101 141 141 30 30 30 30 30 30 51
 51 234 234 234 234 37 37 37 33 33 33 33 33 33 43 43 101 101 101 101
 141 141 30 30 30 30 30 30 51 51 234 234 234 37 37 37 37 33 33 33
 33 33 33 43 43 43 101 101 101 90 90 30 30 30 30 97 97 51 51 51
 51 51 37 37 37 37 33 33 33 33 33 33 43 43 43 90 90 90 90 90
 90 97 97 97 97 97 97 51 51 51 37 37 37 37 37 137 33 33 33 33
 11 11 11 11 90 90 90 90 90 90 90 97 97 97 97 97 97 51 51 37
 37 37 37 137 137 137 33 33 11 11 11 11 11 90 90 90 90 90 90 186
 97 97 97 97 97 97 97 206 148 148 148 148 137 137 137 33 33 11 11 11
 11 11 90 90 90 90 90 90 186 186 97 97 97 97 97 206 206 206 148 148
 148 137 116 116 116 116 11 11 11 22 22 22 90 90 90 93 93 186 186 186
 97 97 97 97 206 206 206 206 148 148 116 116 116 116 116 116 116 22 22 22
 22 22 90 93 93 93 93 186 186 186 97 97 97 206 206 206 206 91 91 116
 116 116 116 116 116 116 22 22 22 22 22 22 93 93 93 93 186 186 42 94
 99 99 99 206 206 206 91 91 116 116 116 116 116 116 116 22 22 22 22 22
 22 93 93 93 93 93 94 94 94 99 99 99 100 100 100 91 91 116 116 116
 116 116 116 116 22 22 22 22 22 222 222 222 93 93 77 94 94 94 99 99
 100 100 100 100 100 192 192 116 116 116 116 197 95 171 171 171 171 222 222 222
 222 222 77 77 77 94 94 94 99 100 100 100 100 100 192 192 192 192 197 197
 197 95 95 171 171 171 222 222 222 222 222 77 77 77 77 94 245 245 100 100
 100 100 100 192 192 192 192 95 95 95 95 173 173 173 173 173 222 222 222 222
 174 174 174 77 245 245 245 62 100 100 100 100 192 192 192 95 95 95 95 95
 95 173 173 173 173 222 222 222 174 174 174 174 245 245 245 245 62 62 100 100
 100 192 192 184 184 95 95 95 95 95 173 173 173 173 209 209 209 209 174 174
 174 245 245 245 245 62 62 62 47 47 47 184 184 184 95 95 95 95 95 173
 173 173 209 209 209 209 209 209 174 105 105 105 245 245 27 47 47 47 47 47
 184 184 184 80 95 95 95 95 173 173 5 209 209 209 209 209 209 170 105 105
 105 105 27 27 27 47 47 47 47 184 184 80 180 180 180 180 180 180 5 5
 5 209 209 209 209 170 170 105 105 105 105 27 27 27 47 47 47 47 80 80
 180 180 180 180 180 180 180 5 5 5 5 209 209 209 170 170 105 105 105 105
 27 27 27 47 47 47 47 219 219 180 180 180 180 180 180 180 5 5 5 5
 5 209 209 209 105 105 105 105 105 27 251 251 251 251 251 251 219 219 180 180
 180 180 180 180 180 5 5 5 5 5 238 238 238 238 105 105 105 105 251 251
 251 251 251 251 251 219 219 219 180 180 180 180 180 180 5 5 5 5 5 238
 238 238 244 244 244 244 251 251 251 251 251 251 251 251 219 219 219 246 180 180
 180 13 241 241 241 5 5 5 238 244 244 244 244 244 244 251 251 251 251 251
 251 251 251 219 246 246 246 246 246 13 241 241 241 241 241 141 141 244 244 244
 244 244 244 64 64 64 64 251 251 251 251 219 219 246 246 246 246 246 241 241
 241 241 241 45 141 141 141 244 244 244 244 244 64 64 64 64 251 251 251 251
 219 219 246 246 246 246 246 241 241 241 241 45 45 141 141 141 30 244 244 244
 244 64 64 64 64 251 251 251 251 219 183 183 246 246 246 134 241 241 241 241
 45 45 141 141 141 30 30 30 30 30 64 64 51 51 51 51 51 37 37 183
 183 183 33 134 134 43 43 43 45 45 45 45 45 141 30 30 30 30 30 30
 51 51 51 51 51 51 37 37 37 183 33 33 33 134 43 43 43 43 45 45
 45 45 141 30 30 30 30 30 51 51 51 51 51 51 37 37 37 37 33 33
 33 33 33 43 43 43 43 154 154 154 154 90 90 30 30 97 97 97 51 51
 51 51 51 37 37 37 37 33 33 33 33 33 43 43 43 43 154 154 90 90
 90 90 90 97 97 97 97 97 51 51 51 51 37 37 37 37 33 33 33 33
 11 11 11 11 154 154 90 90 90 90 90 90 97 97 97 97 97 97 51 51
 148 148 148 37 148 137 33 33 11 11 11 11 11 11 154 90 90 90 90 90
 186 97 97 97 97 97 97 97 206 148 148 148 148 148 148 116 116 11 11 11
 11 11 108 90 90 90 90 90 90 186 186 97 97 97 97 97 206 206 206 148
 148 148 148 116 116 116 116 11 11 11 108 108 108 90 90 90 90 186 186 186
 186 97 97 97 97 206 206 206 206 148 148 116 116 116 116 116 116 11 108 108
 108 108 108 108 90 93 93 186 186 186 186 97 97 99 206 206 206 206 206 148
 116 116 116 116 116 116 116 108 108 108 108 108 108 93 93 93 93 186 186 186
 99 99 99 99 206 206 206 164 164 116 116 116 116 116 116 116 108 108 108 108
 108 108 93 93 93 93 94 94 94 94 99 99 99 99 206 100 164 164 116 116
 116 116 116 116 116 108 108 108 108 108 222 222 222 93 94 94 94 94 94 99
 99 99 100 100 100 100 192 192 192 116 116 197 197 197 197 171 171 171 171 222
 222 222 138 138 94 94 94 94 99 99 100 100 100 100 100 192 192 192 192 197
 197 197 197 197 171 171 171 171 222 222 222 222 138 138 94 94 94 245 245 100
 100 100 100 192 192 192 192 192 197 197 197 197 173 173 173 173 173 222 222 222
 222 174 174 174 245 245 245 245 100 100 100 100 192 192 192 192 192 197 197 197
 197 173 173 173 173 173 222 222 222 174 174 174 174 245 245 245 245 245 100 100
 100 192 192 192 192 192 197 197 95 95 173 173 173 173 173 209 209 209 209 174
 174 174 245 245 245 245 245 47 47 47 47 192 192 80 80 80 95 95 95 173
 173 173 173 209 209 209 209 209 209 174 105 105 245 245 245 27 47 47 47 47
 47 80 80 80 80 80 95 95 173 173 173 173 209 209 209 209 209 170 170 170
 105 105 27 27 27 27 47 47 47 47 80 80 80 80 80 180 180 180 180 5
 5 5 209 209 209 209 170 170 170 105 105 27 27 27 27 47 47 47 47 80
 80 80 80 180 180 180 180 180 5 5 5 5 209 209 209 170 170 170 105 105
 27 27 27 27 47 47 47 47 80 80 80 80 180 180 180 180 180 5 5 5
 5 5 209 209 209 105 105 105 105 27 27 27 47 47 47 47 47 219 80 80
 180 180 180 180 13 13 5 5 5 5 5 238 238 238 105 105 105 105 27 27
 251 251 251 251 251 251 219 246 246 246 13 13 13 13 13 13 5 5 5 5
 238 238 244 244 244 244 105 251 251 251 251 251 251 251 251 219 246 246 246 246
 13 13 13 241 241 241 5 5 5 238 244 244 244 244 244 244 64 251 251 251
 251 251 251 251 246 246 246 246 246 246 13 241 241 241 241 45 45 45 45 57
 57 57 57 64 64 64 64 64 251 251 251 251 219 246 246 246 246 246 246 241
 241 241 241 241 45 45 45 45 57 57 57 57 64 64 64 64 64 251 251 251
 251 219 246 246 246 246 246 246 241 241 241 241 45 45 45 45 57 57 57 57
 57 57 64 64 64 64 51 51 251 88 183 183 183 246 246 246 134 134 241 241
 45 45 45 45 45 57 57 57 57 57 57 64 64 51 51 51 51 51 51 183
 183 183 183 183 134 134 134 43 43 45 45 45 45 45 57 57 57 57 57 57
 51 51 51 51 51 51 51 51 183 183 183 183 183 134 134 43 43 43 43 45
 45 45 45 45 57 57 57 57 57 51 51 51 51 51 51 51 37 183 183 183
 183 33 134 134 43 43 43 43 154 154 154 154 154 57 57 57 57 97 51 51
 51 51 51 51 51 37 37 183 183 33 33 33 43 43 43 43 43 154 154 154
 154 90 90 97 97 97 97 97 51 51 51 51 51 148 148 37 148 148 33 33
 11 11 11 11 43 154 154 154 154 90 90 90 90 97 97 97 97 97 51 51
 51 148 148 148 148 148 148 33 33 11 11 11 11 11 154 154 90 90 90 90
 90 186 97 97 97 97 97 97 206 206 206 148 148 148 148 148 116 116 11 11
 11 11 11 108 108 90 90 90 90 90 186 186 97 97 97 97 97 206 206 206
 206 148 148 148 148 116 116 116 11 11 11 108 108 108 108 90 90 90 186 186
 186 186 97 97 97 97 206 206 206 206 148 148 148 116 116 116 116 116 11 108
 108 108 108 108 108 90 93 186 186 186 186 186 97 99 206 206 206 206 206 206
 148 116 116 116 116 116 116 108 108 108 108 108 108 108 108 93 186 186 186 186
 99 99 99 99 99 206 206 164 164 164 158 158 116 116 116 116 108 108 108 108
 108 108 108 108 93 186 186 94 94 94 99 99 99 99 164 164 164 164 164 158
 158 158 116 116 116 197 108 108 108 108 108 108 108 125 94 94 94 94 94 99
 99 99 99 100 100 164 164 164 158 158 158 118 197 197 197 197 171 171 171 108
 222 222 125 138 138 138 94 94 94 99 99 99 100 100 100 192 192 192 192 118
 197 197 197 197 197 171 171 171 171 222 222 222 138 138 138 138 94 94 99 99
 100 100 100 100 192 192 192 192 118 197 197 197 197 197 173 173 173 173 222 222
 222 138 138 138 138 245 245 245 245 100 100 100 100 192 192 192 192 118 197 197
 197 197 173 173 173 173 173 173 222 222 138 138 138 138 245 245 245 245 245 100
 100 192 192 192 192 192 118 197 197 197 197 173 173 173 173 173 173 209 209 209
 174 174 245 245 245 245 245 47 47 47 47 47 192 192 80 80 80 197 197 197
 173 173 173 173 173 209 209 209 209 209 170 105 245 245 245 47 47 47 47 47
 47 47 80 80 80 80 80 80 80 173 173 173 173 209 209 209 209 209 170 170
 170 55 55 27 27 27 47 47 47 47 47 80 80 80 80 80 80 180 13 180
 5 5 190 190 209 209 209 170 170 170 170 55 27 27 27 47 47 47 47 47
 80 80 80 80 80 80 180 13 180 5 5 5 190 209 209 209 170 170 170 55
 55 27 27 27 47 47 47 47 47 80 80 80 80 80 13 13 13 13 13 5
 5 5 209 209 135 135 170 105 55 55 27 47 47 47 47 47 47 47 80 80
 80 80 80 13 13 13 13 13 5 5 5 5 135 135 135 24 24 24 55 27
 47 47 47 47 47 47 47 246 246 246 246 13 13 13 13 13 13 13 5 5
 160 135 135 135 24 24 24 64 64 64 251 251 251 251 251 251 246 246 246 246
 246 13 13 13 13 241 241 241 160 160 135 135 244 244 244 244 64 64 64 64
 251 251 251 251 251 246 246 246 246 246 246 13 241 241 241 241 45 45 45 96
 96 57 57 57 64 64 64 64 64 64 251 251 251 88 246 246 246 246 246 246
 241 241 241 241 45 45 45 45 96 96 57 57 57 64 64 64 64 64 64 251
 251 88 88 246 246 246 246 246 246 241 241 241 241 45 45 45 45 57 57 57
 57 57 57 64 64 64 51 51 51 51 88 88 183 183 246 246 246 134 134 241
 241 45 45 45 45 45 57 57 57 57 57 57 64 64 51 51 51 51 51 88
 183 183 183 183 183 134 134 134 43 43 45 45 45 45 45 57 57 57 57 57
 57 51 51 51 51 51 51 51 51 183 183 183 183 183 134 134 134 43 43 43
 45 45 45 45 45 57 57 57 57 57 51 51 51 51 51 51 51 37 183 183
 183 183 183 134 134 43 43 43 43 154 154 154 154 154 57 57 57 247 247 51
 51 51 51 51 51 51 37 183 183 183 183 183 134 134 43 43 43 43 154 154
 154 154 90 90 247 247 247 247 51 51 51 51 51 51 148 148 148 148 148 33
 33 11 11 11 11 32 32 154 154 154 154 90 90 247 247 247 97 97 97 51
 51 51 148 148 148 148 148 148 148 11 11 11 11 11 11 32 32 154 154 90
 90 90 247 247 247 97 97 97 51 206 206 206 148 148 148 148 148 148 11 11
 11 11 11 11 108 108 90 90 90 90 90 186 186 97 97 97 97 206 206 206
 206 206 148 148 148 148 116 116 11 11 11 11 108 108 108 108 90 90 90 90
 186 186 186 97 97 97 206 206 206 206 206 206 148 164 116 116 116 116 116 108
 108 108 108 108 108 108 90 90 186 186 186 186 186 99 99 99 206 206 206 206
 164 164 164 116 116 116 116 116 108 108 108 108 108 108 108 108 93 186 186 186
 186 99 99 99 99 99 206 164 164 164 164 158 158 158 116 116 116 108 108 108
 108 108 108 108 108 125 125 186 94 94 99 99 99 99 99 164 164 164 164 164
 158 158 158 158 118 197 197 108 108 108 108 108 108 125 125 125 94 94 94 94
 99 99 99 99 99 164 164 164 164 158 158 158 118 118 197 197 197 108 108 108
 108 108 125 125 125 138 138 138 94 99 99 99 99 100 100 164 164 164 192 158
 118 118 197 197 197 197 197 171 171 179 179 125 125 125 138 138 138 138 99 99
 99 99 100 100 100 192 192 192 192 118 118 197 197 197 197 173 173 173 179 179
 179 125 125 138 138 138 138 245 245 245 100 100 100 100 192 192 192 192 118 118
 197 197 197 197 173 173 173 179 179 179 125 125 138 138 138 245 245 245 245 245
 100 100 192 192 192 192 192 118 118 197 197 197 197 173 173 173 179 179 179 209
 209 138 138 55 245 245 245 245 47 47 47 47 47 192 192 80 80 80 80 197
 197 197 173 173 173 190 190 190 209 209 209 55 55 55 55 245 47 47 47 47
 47 47 47 80 80 80 80 80 80 80 197 173 173 190 190 190 190 209 209 170
 55 55 55 55 55 47 47 47 47 47 47 47 47 80 80 80 80 80 80 13
 13 190 190 190 190 190 135 135 170 170 55 55 55 55 47 47 47 47 47 47
 47 47 80 80 80 80 80 13 13 13 190 190 190 190 190 135 135 135 24 55
 55 55 55 47 47 47 47 47 47 47 80 80 80 80 80 13 13 13 13 13
 190 190 190 190 135 135 135 24 24 55 55 55 47 47 47 47 47 47 47 80
 80 80 129 129 13 13 13 13 13 160 160 160 135 135 135 135 24 24 24 55
 55 47 47 47 47 47 47 47 246 246 246 246 129 129 13 13 13 13 160 160
 160 160 135 135 135 24 24 24 64 64 64 47 251 251 251 251 251 246 246 246
 246 246 129 13 13 13 13 13 160 160 160 135 135 135 24 24 64 64 64 64
 64 251 251 251 251 251 246 246 246 246 246 246 129 13 13 241 160 160 160 96
 96 96 96 57 57 64 64 64 64 117 117 117 117 88 88 246 246 246 246 246
 246 241 241 241 241 45 45 45 45 96 96 96 57 57 64 64 64 64 117 117
 117 88 88 88 246 246 246 246 246 246 241 241 241 45 45 45 45 45 96 96
 57 57 57 57 64 64 64 51 51 51 88 88 88 183 183 218 218 218 218 25
 25 25 45 45 45 45 45 57 57 57 57 57 57 64 51 51 51 51 51 88
 88 88 183 183 183 218 134 134 25 25 25 45 45 45 45 45 45 57 57 57
 57 57 51 51 51 51 51 51 51 88 183 183 183 183 183 134 134 25 25 43
 43 45 45 45 45 45 57 57 57 57 57 51 51 51 51 51 51 51 51 183
 183 183 183 183 134 134 43 43 43 43 154 154 154 154 154 57 57 247 247 247
 51 51 51 51 51 51 51 183 183 183 183 183 183 134 134 43 43 32 32 154
 154 154 154 154 247 247 247 247 247 247 51 51 51 51 51 148 148 148 148 148
 183 120 120 11 11 32 32 32 32 154 154 154 90 247 247 247 247 247 247 97
 51 51 51 51 148 148 148 148 148 120 120 120 11 11 11 32 32 32 154 154
 154 90 90 247 247 247 247 97 97 51 206 206 206 206 148 148 148 148 120 120
 120 112 11 11 32 32 32 154 90 90 90 90 247 247 247 247 97 97 206 206
 206 206 206 148 148 148 148 112 112 112 112 11 108 108 108 108 108 108 90 90
 90 186 186 186 230 97 97 206 206 206 206 206 206 148 164 116 116 116 112 112
 108 108 108 108 108 108 108 108 29 29 29 186 235 235 99 99 206 206 206 206
 164 164 164 164 116 116 116 116 116 108 108 108 108 108 108 108 108 29 29 29
 235 235 235 99 99 99 99 206 164 164 164 164 164 158 158 116 118 118 108 108
 108 108 108 108 108 108 125 125 125 235 235 235 99 99 99 99 164 164 164 164
 164 158 158 158 118 118 118 108 108 108 108 108 108 108 125 125 125 125 138 235
 235 99 99 99 99 164 164 164 164 164 158 158 118 118 118 197 197 197 108 108
 108 108 125 125 125 125 125 138 138 235 99 99 99 99 164 164 164 164 164 192
 118 118 118 118 197 197 197 197 179 179 179 179 125 125 125 125 138 138 235 235
 99 99 99 100 100 100 192 192 192 118 118 118 118 197 197 197 173 179 179 179
 179 179 125 125 125 138 138 138 235 245 245 99 100 100 100 192 192 192 118 118
 118 197 197 197 197 173 179 179 179 179 179 125 125 125 138 138 55 245 245 245
 47 47 47 47 192 192 192 118 118 118 197 197 197 197 173 179 179 179 179 179
 125 125 125 138 55 55 98 98 47 47 47 47 47 47 192 192 80 80 80 80
 80 197 197 173 179 179 179 190 190 190 135 55 55 55 55 98 98 47 47 47
 47 47 47 47 80 80 80 80 80 80 80 80 177 177 190 190 190 190 135 135
 135 55 55 55 55 55 47 47 47 47 47 47 47 47 80 80 80 80 80 80
 13 177 177 190 190 190 190 135 135 135 55 55 55 55 55 47 47 47 47 47
 47 47 80 80 80 80 80 80 13 13 13 177 190 190 190 190 135 135 135 24
 55 55 55 55 47 47 47 47 47 47 47 80 80 80 80 80 129 13 13 13
 13 160 160 190 190 135 135 135 24 24 55 55 55 47 47 47 47 47 47 47
 80 80 80 129 129 129 13 13 13 13 160 160 160 135 135 135 135 24 24 24
 55 55 47 47 47 47 47 47 47 246 246 129 129 129 129 129 13 13 13 160
 160 160 160 135 135 135 24 24 24 117 117 117 117 117 47 47 47 47 246 246
 246 246 129 129 129 13 13 13 160 160 160 160 135 135 135 24 24 117 117 64
 64 117 117 117 251 47 47 246 246 246 246 246 129 129 13 13 160 160 160 160
 96 96 96 96 96 96 117 117 117 117 117 117 117 117 88 88 88 246 246 246
 246 246 129 241 241 45 45 45 45 96 96 96 96 96 57 64 64 64 117 117
 117 88 88 88 88 88 218 218 218 218 218 218 241 241 45 45 45 45 45 96
 96 96 57 57 64 64 64 117 117 117 88 88 88 88 88 218 218 218 218 218
 25 25 25 45 45 45 45 45 96 96 57 57 57 57 128 128 51 51 51 88
 88 88 88 88 183 218 218 218 218 25 25 25 25 45 45 45 45 96 57 57
 57 57 57 128 128 146 146 146 51 88 88 88 183 183 183 218 134 134 25 25
 25 25 220 220 220 45 45 57 57 57 247 128 128 128 146 146 146 51 88 88
 88 183 183 183 183 134 134 25 25 25 32 32 154 154 154 154 57 247 247 247
 247 128 128 146 146 146 51 88 88 183 183 183 183 120 120 134 43 25 32 32
 32 154 154 154 154 247 247 247 247 247 247 51 51 51 51 51 148 148 148 148
 148 120 120 120 112 112 32 32 32 32 32 154 154 90 247 247 247 247 247 247
 247 51 51 51 206 148 148 148 148 120 120 120 120 112 112 32 32 32 32 32
 154 154 90 247 247 247 247 247 247 247 51 206 206 206 206 196 196 148 120 120
 120 120 112 112 32 32 32 32 32 90 29 29 247 247 247 247 247 247 247 206
 206 206 206 206 196 196 148 112 112 112 112 112 112 21 21 21 21 21 108 29
 29 29 29 230 230 230 230 230 206 206 206 206 206 196 196 164 164 112 112 112
 112 112 21 21 21 21 21 108 29 29 29 29 230 230 230 235 99 99 206 206
 206 164 164 164 164 164 116 116 116 112 108 21 21 21 21 21 108 29 29 29
 29 235 235 235 235 99 99 99 164 164 164 164 164 164 158 118 118 118 118 70
 21 21 21 21 21 108 29 29 29 29 235 235 235 235 99 99 99 205 164 164
 164 164 164 158 118 118 118 118 70 70 21 21 21 21 108 125 125 125 125 235
 235 235 235 99 99 99 205 205 164 164 164 158 118 118 118 118 118 70 70 70
 9 21 179 125 125 125 125 125 125 235 235 235 99 99 99 205 205 164 164 164
 118 118 118 118 118 118 197 197 9 9 179 179 179 125 125 125 125 125 235 235
 235 235 99 99 205 205 205 205 164 118 118 118 118 118 197 197 9 9 9 179
 179 179 179 125 125 125 125 138 235 235 235 99 99 205 205 205 205 192 118 118
 118 118 118 197 197 9 9 9 179 179 179 179 125 125 125 125 138 235 235 98
 98 139 139 139 139 139 192 118 118 118 118 118 197 197 9 9 179 179 179 179
 179 175 175 175 175 98 98 98 98 98 139 139 139 139 139 139 80 80 80 80
 80 197 197 9 9 179 179 179 179 175 175 175 175 55 55 98 98 98 98 47
 139 139 139 139 47 80 80 80 80 80 80 14 14 177 177 177 177 190 190 135
 135 55 55 55 55 98 98 47 47 47 47 47 47 47 80 80 80 80 80 80
 80 14 177 177 177 177 190 190 135 135 135 55 55 55 55 55 47 47 47 47
 47 47 47 80 80 80 80 80 80 129 13 177 177 177 177 190 190 135 135 135
 24 55 55 55 55 47 47 47 47 47 47 47 80 80 80 80 129 129 129 13
 13 160 160 160 190 135 135 135 135 24 24 55 55 55 47 47 47 47 47 47
 47 41 129 129 129 129 129 129 13 13 160 160 160 160 135 135 135 135 24 24
 24 55 117 117 47 47 47 47 47 47 41 246 129 129 129 129 129 13 13 160
 160 160 160 160 135 135 135 24 24 24 117 117 117 117 117 47 47 47 41 246
 246 246 129 129 129 129 13 13 160 160 160 160 160 96 96 135 24 24 117 117
 117 117 117 117 117 117 47 41 88 246 246 246 129 129 129 129 13 160 160 160
 160 96 96 96 96 96 117 117 117 117 117 117 117 117 88 88 88 88 246 218
 218 218 246 129 129 241 45 45 45 45 96 96 96 96 96 96 117 117 117 117
 117 117 88 88 88 88 88 218 218 218 218 218 218 25 25 45 45 45 45 96
 96 96 96 96 57 117 117 117 117 117 117 88 88 88 88 88 218 218 218 218
 218 25 25 25 25 220 220 220 220 96 96 96 57 57 128 128 128 128 146 88
 88 88 88 88 88 218 218 218 218 218 25 25 25 25 220 220 220 220 220 96
 57 57 57 128 128 128 128 146 146 88 88 88 88 88 218 218 218 218 25 25
 25 25 220 220 220 220 220 220 57 57 57 247 128 128 128 128 146 146 88 88
 88 88 183 183 183 218 218 25 25 25 25 220 220 220 220 220 220 247 247 247
 247 247 128 128 128 146 146 51 88 88 88 78 78 78 120 120 112 25 25 32
 32 32 220 220 220 220 247 247 247 247 247 128 128 128 146 146 162 88 88 88
 78 78 78 120 120 112 112 32 32 32 32 32 154 154 247 247 247 247 247 247
 247 128 128 146 162 162 162 196 196 196 120 120 120 120 112 112 32 32 32 32
 32 154 29 247 247 247 247 247 247 230 230 128 162 162 162 162 196 196 196 196
 120 120 112 112 112 112 32 32 32 32 29 29 29 247 247 230 230 230 230 230
 230 162 162 162 196 196 196 196 196 112 112 112 112 112 21 21 21 21 21 29
 29 29 29 29 230 230 230 230 230 206 206 162 162 196 196 196 196 196 112 112
 112 112 112 21 21 21 21 21 21 29 29 29 29 230 230 230 230 230 99 205
 206 164 196 196 196 164 164 112 112 112 112 21 21 21 21 21 21 21 29 29
 29 29 29 235 235 235 235 99 205 205 205 164 164 164 164 164 118 118 118 70
 70 70 21 21 21 21 21 29 29 29 29 29 235 235 235 235 205 205 205 205
 205 164 164 164 118 118 118 118 70 70 70 70 21 21 21 21 125 125 125 29
 235 235 235 235 235 205 205 205 205 205 205 164 118 118 118 118 118 70 70 70
 70 9 9 179 125 125 125 125 125 125 235 235 235 235 205 205 205 205 205 205
 164 118 118 118 118 118 118 70 70 9 9 9 179 179 125 125 125 125 125 235
 235 235 235 205 205 205 205 205 205 205 118 118 118 118 118 118 9 9 9 9
 179 179 179 179 125 125 125 125 235 235 235 213 213 205 205 139 205 205 163 118
 118 118 118 118 118 9 9 9 9 179 179 179 175 175 175 175 175 175 235 235
 213 139 139 139 139 139 139 139 118 118 118 118 118 197 9 9 9 9 179 179
 179 175 175 175 175 175 175 98 98 98 98 139 139 139 139 139 139 242 242 242
 242 242 66 14 9 9 9 179 179 179 175 175 175 175 175 55 98 98 98 98
 139 139 139 139 139 139 242 242 242 242 242 66 14 14 14 177 177 177 177 190
 175 175 175 55 55 55 98 98 98 139 139 139 139 139 139 242 242 242 242 242
 242 14 14 177 177 177 177 177 190 135 135 135 55 55 55 55 55 55 199 199
 199 47 47 47 242 242 242 242 242 242 14 14 177 177 177 177 177 135 135 135
 135 24 55 55 55 55 55 47 199 47 47 47 47 242 242 242 242 129 129 129
 129 177 177 177 177 177 135 135 135 135 24 24 55 55 55 55 47 47 47 47
 47 47 41 242 129 129 129 129 129 129 13 160 160 160 160 135 135 135 135 24
 24 24 117 117 117 117 47 47 47 47 41 41 41 129 129 129 129 129 129 13
 160 160 160 160 160 135 135 135 24 24 24 117 117 117 117 117 117 117 41 41
 41 41 129 129 129 129 129 129 13 160 160 160 160 160 96 96 135 24 24 117
 117 117 117 117 117 117 117 41 41 92 92 92 54 54 54 129 129 36 36 36
 160 160 96 96 96 96 96 117 117 117 117 117 117 117 117 88 88 88 92 92
 92 218 54 54 129 129 36 36 36 160 160 96 96 96 96 96 117 117 117 117
 117 117 117 88 88 88 88 88 92 92 218 218 218 218 25 25 220 220 220 220
 96 96 96 96 96 117 117 117 117 117 117 117 88 88 88 88 88 88 218 218
 218 218 25 25 25 220 220 220 220 220 96 96 96 57 128 128 128 128 128 128
 88 88 88 88 88 88 88 218 218 218 218 25 25 25 220 220 220 220 220 220
 20 20 57 128 128 128 128 128 128 88 88 88 88 88 88 88 218 218 218 131
 25 25 25 220 220 220 220 220 220 20 20 20 128 128 128 128 128 128 28 28
 88 88 88 78 78 78 78 131 131 25 25 25 220 220 220 220 220 220 20 247
 247 247 128 128 128 128 128 28 28 28 88 88 78 78 78 78 120 112 25 25
 32 220 220 220 220 220 220 247 247 247 247 247 128 128 128 128 28 28 28 88
 88 78 78 78 78 120 112 112 32 32 32 32 32 220 220 220 247 247 247 247
 143 143 143 128 162 162 162 162 162 196 78 78 78 112 112 112 112 112 32 32
 32 32 220 29 230 230 230 230 230 143 143 143 143 162 162 162 162 196 196 196
 196 120 112 112 112 112 112 32 32 32 130 29 29 29 230 230 230 230 230 230
 230 230 162 162 162 196 196 196 196 196 112 112 112 112 112 112 21 21 21 130
 29 29 29 29 230 230 230 230 230 230 230 162 162 162 196 196 196 196 196 112
 112 112 112 112 21 21 21 21 21 29 29 29 29 29 230 230 230 230 230 216
 205 162 196 196 196 196 164 164 118 112 112 70 70 21 21 21 21 21 29 29
 29 29 29 29 230 230 230 216 216 205 205 205 205 196 196 164 164 118 118 118
 70 70 70 21 21 21 21 29 29 29 29 29 29 235 235 235 216 216 205 205