# vtk DataFile Version 2.0
Data set from ImportExport Version 6.5.171.b0b162591
ASCII

DATASET RECTILINEAR_GRID
DIMENSIONS 30 30 30
X_COORDINATES 30 float
-1.250000 1.250000 3.750000 6.250000 8.750000 11.250000 13.750000 16.250000 18.750000 21.250000 23.750000 26.250000 28.750000 31.250000 33.750000 36.250000 38.750000 41.250000 43.750000 46.250000 48.750000 
51.250000 53.750000 56.250000 58.750000 61.250000 63.750000 66.250000 68.750000 71.250000 
Y_COORDINATES 30 float
-1.250000 1.250000 3.750000 6.250000 8.750000 11.250000 13.750000 16.250000 18.750000 21.250000 23.750000 26.250000 28.750000 31.250000 33.750000 36.250000 38.750000 41.250000 43.750000 46.250000 48.750000 
51.250000 53.750000 56.250000 58.750000 61.250000 63.750000 66.250000 68.750000 71.250000 
Z_COORDINATES 30 float
-1.250000 1.250000 3.750000 6.250000 8.750000 11.250000 13.750000 16.250000 18.750000 21.250000 23.750000 26.250000 28.750000 31.250000 33.750000 36.250000 38.750000 41.250000 43.750000 46.250000 48.750000 
51.250000 53.750000 56.250000 58.750000 61.250000 63.750000 66.250000 68.750000 71.250000 
CELL_DATA 24389
SCALARS FeatureIds int 1
LOOKUP_TABLE default
 227 227 60 60 234 234 23 23 23 23 23 235 235 120 120 120 120 120 120 120
 120 120 137 137 137 137 14 14 14 204 204 204 204 234 234 234 141 141 141 235
 235 235 120 120 120 120 120 120 120 120 120 137 137 137 137 137 14 204 204 204
 204 204 234 234 234 141 141 141 235 235 235 235 120 120 120 120 120 120 120 120
 137 137 137 137 137 204 204 204 204 204 204 234 234 141 141 141 141 235 235 235
 5 5 5 120 120 120 120 120 137 137 137 137 137 137 204 204 204 204 204 204
 204 141 141 141 141 141 235 235 235 5 5 5 5 5 5 120 2 209 209 209
 209 209 226 204 204 204 204 204 204 176 176 141 141 141 141 59 59 5 5 5
 5 5 5 5 2 2 2 209 209 209 226 226 226 226 226 204 204 7 176 176
 176 141 141 59 59 59 5 5 5 5 5 5 5 2 2 2 2 209 209 226
 226 226 226 226 226 7 7 176 176 176 176 228 59 59 59 5 5 5 5 5
 5 5 2 2 2 2 2 209 226 226 226 226 226 7 7 7 176 176 176 176
 161 62 62 135 5 5 5 5 5 5 2 2 2 2 2 2 209 226 226 226
 226 226 7 7 7 7 7 161 161 161 62 62 62 135 135 5 5 5 165 2
 2 133 133 133 133 71 71 226 226 226 7 7 7 7 7 161 161 161 161 62
 62 62 62 135 210 165 165 165 165 133 133 133 133 205 205 71 226 226 226 7
 7 7 7 7 161 161 161 62 62 62 62 62 210 210 210 165 165 15 15 15
 15 205 205 205 126 126 126 52 76 76 33 7 7 161 161 161 161 62 62 62
 62 210 210 210 165 165 15 15 15 15 15 205 126 126 126 126 126 76 76 76
 105 105 105 161 161 161 62 62 39 39 39 39 39 51 165 15 15 15 15 15
 126 126 126 126 126 126 76 76 76 76 105 105 161 58 161 39 39 39 39 39
 39 39 51 78 44 44 44 44 44 126 126 126 126 126 76 76 76 76 76 76
 105 105 58 161 39 39 39 39 39 39 39 78 78 78 78 155 44 44 126 126
 126 126 76 76 76 76 76 76 76 76 182 182 182 39 39 39 39 39 39 39
 78 78 78 78 78 78 44 112 112 112 112 76 76 76 76 76 76 76 76 182
 182 182 182 39 39 39 39 39 39 78 78 78 78 78 78 78 112 112 112 112
 76 76 76 76 76 76 76 76 182 182 182 182 39 39 39 39 39 13 13 78
 78 78 78 78 78 112 112 112 112 76 76 76 76 76 76 76 182 182 182 182
 182 182 39 39 13 13 13 13 13 78 78 78 78 78 200 200 200 200 76 76
 76 76 76 76 76 182 182 182 182 182 191 191 13 13 13 13 13 13 78 78
 78 78 200 200 200 200 200 200 76 76 143 143 143 143 143 182 182 182 191 191
 13 13 13 13 13 13 13 37 37 37 200 200 200 200 200 200 200 76 143 143
 143 143 143 143 143 182 25 25 231 231 13 13 13 13 13 37 37 37 37 42
 42 200 200 200 200 200 200 143 143 143 143 143 143 143 25 25 231 231 231 231
 13 13 13 37 37 37 37 37 42 42 42 200 200 200 200 200 143 143 143 143
 143 143 23 25 25 231 231 231 231 231 13 37 37 37 37 37 37 42 42 42
 42 149 149 149 28 60 227 143 143 143 23 23 23 23 231 231 231 231 231 13
 37 37 37 37 37 37 42 42 149 149 149 149 149 149 60 227 227 227 143 23
 23 23 23 23 231 231 231 231 231 198 198 198 198 198 198 149 149 149 149 149
 149 149 227 227 227 227 227 227 23 23 23 23 23 231 231 231 231 120 120 198
 198 120 120 120 120 149 149 149 149 149 227 227 227 227 60 60 23 23 23 23
 23 23 231 231 231 231 120 120 120 120 120 120 120 120 149 149 149 149 149 227
 227 227 227 60 60 234 234 23 23 23 23 23 235 235 120 120 120 120 120 120
 120 120 120 137 166 137 14 14 14 14 204 204 204 204 234 234 234 141 141 141
 235 235 235 235 120 120 120 120 120 120 120 120 166 166 166 166 14 14 14 204
 204 204 204 234 234 234 141 141 141 235 235 235 235 120 120 120 120 120 120 120
 166 166 166 166 166 14 14 204 204 204 204 204 234 234 141 141 141 141 235 235
 235 235 5 120 120 120 120 120 120 166 166 166 166 166 14 14 204 204 204 204
 204 234 141 141 141 141 141 235 235 235 5 5 5 120 120 120 120 120 166 166
 166 166 166 166 204 204 204 204 204 204 7 141 141 141 141 141 235 235 235 5
 5 5 5 5 5 2 2 2 2 166 166 166 226 226 226 226 7 7 7 7
 7 228 228 228 141 59 59 5 5 5 5 5 5 2 2 2 2 2 2 209
 226 226 226 226 226 7 7 7 7 7 228 228 228 135 135 135 135 5 5 5
 5 5 2 2 2 2 2 2 209 226 226 226 226 226 7 7 7 7 7 228
 228 228 135 135 135 135 135 5 5 5 5 2 2 2 2 2 2 2 226 226
 226 226 7 7 7 7 7 7 7 161 161 135 135 135 135 135 135 165 165 165
 165 2 2 2 2 205 205 226 226 226 226 7 7 7 7 7 7 7 161 161
 62 135 135 135 135 210 165 165 165 165 15 15 15 205 205 205 205 52 52 52
 7 7 7 7 7 7 161 161 62 62 62 135 135 210 210 210 165 165 165 15
 15 15 205 205 205 126 126 52 52 76 33 33 33 7 7 161 161 161 62 62
 135 210 210 210 210 165 165 165 15 15 15 15 205 126 126 126 52 52 76 76
 33 33 33 33 161 161 161 62 62 39 39 210 210 210 51 165 165 44 44 44
 44 126 126 126 126 126 52 76 76 76 33 33 33 161 58 161 62 39 39 39
 221 221 51 51 51 51 44 44 44 44 162 126 126 126 126 76 76 76 76 76
 76 76 76 58 182 39 39 39 39 39 221 51 51 51 78 78 78 44 44 162
 126 126 126 76 76 76 76 76 76 76 76 76 182 182 191 39 39 39 39 221
 118 118 78 78 78 78 78 78 162 112 112 76 76 76 76 76 76 76 76 76
 182 182 182 191 191 39 39 39 118 118 118 78 78 78 78 78 78 78 112 112
 76 76 76 76 76 76 76 76 76 182 182 182 191 191 39 39 39 118 118 118
 78 78 78 78 78 78 200 200 200 76 76 76 76 76 76 76 76 182 182 182
 182 191 191 191 39 13 13 13 13 13 78 78 78 78 200 200 200 200 200 76
 76 76 76 76 76 76 182 182 182 182 191 191 191 13 13 13 13 13 13 78
 78 78 78 200 200 200 200 200 200 76 76 76 143 143 143 143 182 182 182 191
 191 150 150 13 13 13 13 13 37 78 78 200 200 200 200 200 200 200 76 28
 28 143 143 143 143 182 25 25 25 25 150 150 13 13 13 13 13 37 37 37
 200 200 200 200 200 200 200 200 28 143 143 143 143 143 143 25 25 25 231 231
 231 13 13 13 13 13 37 37 37 200 200 200 200 200 200 200 28 28 143 143
 143 143 143 25 25 25 25 231 231 231 231 13 13 13 37 37 37 37 149 149
 149 149 149 149 149 28 60 147 143 143 143 23 23 23 25 25 231 231 231 231
 13 13 37 37 37 37 149 149 149 149 149 149 149 149 149 60 227 227 227 143
 23 23 23 23 23 231 231 231 231 231 120 198 198 198 120 120 149 149 149 149
 149 149 149 60 227 60 227 227 227 23 23 23 23 23 231 231 231 231 120 120
 120 120 120 120 120 149 149 149 149 149 149 149 227 227 227 60 60 60 23 23
 23 23 23 231 231 231 231 120 120 120 120 120 120 120 120 149 149 149 149 149
 149 227 24 24 24 24 234 234 23 23 23 23 23 235 235 120 120 120 120 120
 120 120 120 120 166 166 149 149 14 14 14 24 204 24 24 234 234 234 157 91
 91 235 235 235 120 120 120 120 120 120 120 120 166 166 166 166 14 14 14 14
 204 204 204 204 234 234 234 157 157 157 235 235 235 235 120 120 120 120 120 120
 120 166 166 166 166 166 14 14 14 204 204 204 204 234 141 141 157 157 157 235
 235 235 235 120 120 120 120 120 120 120 166 166 166 166 166 14 14 204 204 204
 204 204 204 157 141 141 141 157 235 235 235 5 120 120 120 120 120 120 166 166
 166 166 166 166 14 14 204 204 204 204 204 7 157 157 157 141 141 235 235 235
 5 5 5 5 5 120 181 181 181 166 166 166 166 226 226 226 226 7 7 7
 7 7 228 228 228 228 135 135 135 5 5 5 5 5 181 181 181 181 181 181
 166 226 226 226 226 226 7 7 7 7 7 228 228 228 135 135 135 135 135 5
 5 5 5 181 181 181 181 181 181 181 226 226 226 226 226 7 7 7 7 7
 228 228 228 135 135 135 135 135 135 68 165 165 181 181 181 181 181 181 181 226
 226 226 226 7 7 7 7 7 7 7 228 228 135 135 135 135 135 135 165 165
 165 165 181 181 181 181 205 205 52 52 52 52 7 7 7 7 7 7 7 161
 161 135 135 135 135 135 210 165 165 165 165 165 15 15 205 205 205 52 52 52
 52 52 7 7 7 7 7 7 161 62 135 135 135 135 210 210 210 165 165 165
 165 15 15 205 205 205 126 52 52 52 52 33 33 33 33 7 7 161 161 62
 135 135 210 210 210 210 165 165 165 165 44 44 44 205 126 126 126 52 52 76
 33 33 33 33 33 33 161 161 62 146 221 221 210 210 210 51 165 165 44 44
 44 44 162 126 126 126 52 52 76 76 33 33 33 33 33 58 173 221 221 221
 221 221 221 51 51 51 51 44 44 44 44 162 162 126 126 126 76 76 76 76
 76 76 33 33 182 191 191 221 221 221 221 221 51 51 51 51 78 78 44 162
 162 162 126 126 76 76 76 76 76 76 76 76 76 182 191 191 221 221 221 221
 221 118 118 51 78 78 78 78 162 162 162 126 76 76 76 76 76 76 76 76
 76 182 182 191 191 191 221 221 221 118 118 118 78 78 78 78 78 78 162 162
 76 76 76 76 76 76 76 76 76 76 182 182 191 191 191 191 39 118 118 118
 118 78 78 78 78 78 78 200 200 200 76 76 76 76 76 76 76 76 182 182
 182 191 191 191 191 191 13 13 13 13 13 155 78 78 78 78 200 200 200 200
 76 76 76 76 76 76 76 182 182 182 191 191 191 191 150 13 13 13 13 13
 155 78 78 78 200 200 200 200 200 200 76 28 28 28 143 143 143 182 182 191
 191 191 150 150 150 13 13 13 13 13 78 78 200 200 200 200 200 200 200 76
 28 28 143 143 143 143 182 25 25 25 25 150 150 150 13 13 13 13 13 37
 37 200 200 200 200 200 200 200 28 28 28 143 143 143 143 25 25 25 25 25
 231 150 150 150 13 13 13 37 37 37 149 149 149 200 200 200 200 28 28 147
 143 143 143 143 25 25 25 25 25 231 231 150 150 13 13 37 37 37 149 149
 149 149 149 149 149 149 28 147 147 147 143 143 23 23 25 25 25 25 231 231
 231 150 13 13 37 37 120 149 149 149 149 149 149 149 149 28 147 147 147 227
 143 23 23 23 25 25 25 231 231 231 231 120 120 120 120 120 120 149 149 149
 149 149 149 149 60 227 227 227 227 227 23 23 23 23 70 70 231 231 231 120
 120 120 120 120 120 120 149 149 149 149 149 149 149 227 227 227 60 60 23 23
 23 23 23 70 70 70 231 231 120 120 120 120 120 120 120 120 149 149 149 149
 149 14 14 24 24 24 24 91 91 91 91 91 91 91 91 235 120 120 120 120
 120 120 120 120 166 166 166 149 149 14 14 14 24 24 24 24 91 91 91 91
 91 91 91 235 235 120 120 120 120 120 120 120 120 166 166 166 166 14 14 14
 14 24 24 24 24 234 157 157 157 157 157 235 235 235 177 120 120 120 120 120
 120 120 166 166 166 166 166 14 14 14 204 204 204 204 157 157 157 157 157 157
 235 235 235 177 120 120 120 120 120 120 166 166 166 166 166 166 14 14 14 204
 204 204 204 157 157 157 157 157 157 235 235 235 177 177 177 120 120 120 120 166
 166 166 166 166 166 14 14 204 204 204 204 7 7 157 157 157 157 157 235 135
 177 177 177 177 177 120 120 181 181 181 166 166 166 166 8 8 8 8 195 7
 7 7 7 228 228 228 228 135 135 135 135 177 177 177 177 181 181 181 181 181
 181 166 8 8 8 8 195 7 7 7 7 7 228 228 228 135 135 135 135 135
 135 68 177 177 181 181 181 181 181 181 166 8 8 8 8 7 7 7 7 7
 7 228 228 228 135 135 135 135 135 68 68 68 165 181 181 181 181 181 181 181
 8 8 8 8 7 7 7 7 7 7 7 228 228 135 135 135 135 135 68 68
 165 165 165 181 181 181 181 181 181 52 52 52 52 52 7 7 7 7 7 7
 122 122 135 135 135 135 135 210 165 165 165 165 165 117 117 117 205 205 52 52
 52 52 52 7 7 7 7 7 122 122 122 135 135 135 135 210 210 210 165 165
 165 165 117 117 117 205 126 52 52 52 52 52 33 33 33 33 7 122 122 122
 122 146 146 210 210 210 210 165 165 165 165 117 44 44 162 126 126 52 52 52
 52 33 33 33 33 33 122 122 122 146 146 146 221 210 210 210 51 165 165 165
 44 44 162 162 162 126 126 52 52 76 76 33 33 33 33 33 173 173 146 146
 221 221 221 221 51 51 51 51 44 44 44 162 162 162 162 126 52 76 76 76
 76 76 33 33 173 170 170 191 221 221 221 221 221 51 51 51 51 78 78 44
 162 162 162 162 126 76 76 76 76 76 76 76 76 170 170 170 191 191 221 221
 221 221 118 51 51 78 78 78 78 162 162 162 162 76 76 76 76 76 76 76
 76 76 170 170 191 191 191 221 221 221 118 118 118 118 78 78 78 78 78 162
 162 57 57 76 76 76 76 76 76 76 76 170 191 191 191 191 191 221 118 118
 118 118 118 78 78 78 78 78 3 57 57 57 57 76 76 76 76 76 76 182
 170 191 191 191 191 191 191 118 118 118 118 118 78 78 78 78 78 200 200 57
 57 57 76 76 76 76 76 76 182 182 191 191 191 191 191 150 150 13 13 13
 13 78 78 78 78 200 200 200 200 57 57 57 28 28 28 143 143 143 182 191
 191 191 191 150 150 150 150 13 13 13 13 78 78 200 200 200 200 200 200 57
 57 28 28 28 143 143 143 143 25 25 25 25 150 150 150 150 13 13 13 13
 13 78 200 200 200 200 200 200 200 28 28 28 28 143 143 143 25 25 25 25
 25 150 150 150 150 150 13 13 13 13 149 149 149 149 149 149 149 149 28 28
 147 28 143 143 143 25 25 25 25 25 25 150 150 150 150 13 13 13 37 149
 149 149 149 149 149 149 149 28 147 147 147 147 143 23 25 25 25 25 25 25
 25 150 150 150 217 217 217 120 149 149 149 149 149 149 149 149 147 147 147 147
 147 23 23 23 25 25 25 25 25 25 231 150 150 120 120 120 120 149 149 149
 149 149 149 149 149 147 147 147 147 227 23 23 23 23 70 70 70 25 25 231
 150 120 120 120 120 120 120 149 149 149 149 149 149 149 227 24 24 24 24 24
 23 23 23 70 70 70 70 70 70 120 120 120 120 120 120 120 149 149 149 149
 149 149 14 14 24 24 24 24 91 91 91 91 91 91 91 91 91 177 120 120
 120 120 120 120 47 166 166 166 149 149 14 14 14 24 24 24 24 91 91 91
 91 91 91 91 91 177 177 177 120 120 120 120 120 120 166 166 166 166 14 14
 14 14 24 24 24 24 91 91 91 91 91 91 91 91 177 177 177 177 120 120
 120 120 166 166 166 166 166 166 14 14 14 24 24 24 24 91 157 157 157 157
 157 91 177 177 177 177 177 177 120 120 120 166 166 166 166 166 166 14 14 24
 24 24 24 24 157 157 157 157 157 157 157 177 177 177 177 177 177 177 120 114
 114 166 166 166 166 166 14 8 24 195 195 195 195 7 157 228 157 157 157 242
 242 177 177 177 177 177 177 177 114 114 114 166 166 166 8 8 8 8 195 195
 195 7 7 7 228 228 228 242 242 242 242 177 177 177 177 177 177 114 114 114
 114 114 114 8 8 8 8 195 195 195 7 7 7 228 228 228 135 135 135 135
 135 177 68 177 177 114 114 114 114 114 114 114 8 8 8 8 195 195 7 7
 7 7 228 228 228 135 135 135 135 135 68 68 68 68 114 114 114 114 114 114
 114 8 8 8 8 7 7 7 7 7 7 185 122 122 135 135 135 135 135 68
 68 68 165 165 114 114 114 114 114 114 8 52 8 8 7 7 7 7 7 7
 122 122 122 135 135 135 135 135 68 68 165 165 165 117 117 117 117 117 117 52
 52 52 52 52 7 7 7 7 7 122 122 122 122 135 135 135 210 210 165 165
 165 165 117 117 117 117 117 126 52 52 52 52 52 33 33 33 33 122 122 122
 122 122 146 146 146 210 210 210 165 165 165 117 117 117 117 162 162 52 52 52
 52 52 33 33 33 33 33 122 122 122 146 146 146 146 221 210 210 165 165 165
 117 117 117 162 162 162 162 52 52 52 76 33 33 33 33 33 173 173 173 146
 146 146 221 221 221 51 51 51 51 51 44 44 162 162 162 162 126 52 76 76
 76 76 33 33 173 173 173 173 173 146 221 221 221 221 51 51 51 51 78 78
 162 162 162 162 162 162 76 76 76 76 76 76 76 170 170 170 170 170 170 221
 221 221 118 118 118 51 51 78 78 3 3 3 3 3 76 76 76 76 76 76
 76 76 170 170 170 170 191 191 221 221 221 118 118 118 118 78 78 78 78 3
 3 3 57 57 57 57 76 76 76 76 76 170 170 170 191 191 191 191 221 118
 118 118 118 118 78 78 78 3 3 3 3 57 57 57 57 57 76 76 76 76
 170 170 170 191 191 191 191 191 118 118 118 118 118 78 78 78 3 3 3 57
 57 57 57 57 57 76 76 76 76 170 170 191 191 191 191 191 150 150 150 13
 13 13 78 78 78 3 3 3 57 57 57 57 57 28 28 28 28 143 80 80
 191 191 191 191 150 150 150 150 150 13 13 13 78 78 200 200 200 200 57 57
 57 57 28 28 28 28 143 80 80 25 25 25 25 150 150 150 150 150 13 13
 13 13 78 200 200 200 200 200 200 57 28 28 28 28 28 80 80 25 25 25
 25 25 150 150 150 150 150 13 217 217 56 149 149 149 149 149 149 149 149 28
 147 147 28 28 143 80 25 25 25 25 25 25 150 150 150 150 217 217 217 56
 149 149 149 149 149 149 149 149 28 147 147 147 147 143 25 25 25 25 25 25
 25 25 150 150 217 217 217 217 217 149 149 149 149 149 149 149 149 147 147 147
 147 147 23 23 25 25 25 25 25 25 25 150 150 217 217 217 217 217 149 149
 149 149 149 149 149 149 147 147 147 147 147 23 23 25 25 25 70 70 25 25
 212 212 212 212 212 120 120 47 149 149 149 149 149 149 149 149 24 24 24 24
 24 91 91 91 91 70 70 70 70 212 212 212 120 120 120 120 47 149 149 149
 149 149 149 14 24 24 24 24 24 91 91 91 91 91 91 91 91 91 177 177
 212 120 47 47 47 47 47 115 115 115 115 14 14 24 24 24 24 24 91 91
 91 91 91 91 91 91 177 177 177 177 120 47 47 47 47 47 115 115 115 115
 14 14 24 24 24 24 24 91 91 91 91 91 91 91 91 177 177 177 177 177
 47 47 47 47 166 166 166 166 166 14 14 24 24 24 24 24 91 91 91 91
 91 91 91 177 177 177 177 177 177 177 47 47 47 166 166 166 166 166 14 14
 24 24 24 24 24 157 157 157 157 157 157 242 242 177 177 177 177 177 177 177
 114 114 166 166 166 166 166 8 8 8 195 195 195 195 7 157 228 157 157 242
 242 242 177 177 177 177 177 177 177 114 114 114 114 114 166 8 8 8 8 195
 195 195 195 7 185 228 228 228 242 242 242 242 177 177 177 177 177 177 114 114
 114 114 114 114 8 8 8 8 195 195 195 7 7 185 185 228 228 242 242 242
 242 242 177 177 177 177 114 114 114 114 114 114 114 8 8 8 8 195 195 195
 7 7 185 185 185 228 242 242 242 242 68 68 68 68 68 114 114 114 114 114
 114 114 8 8 8 8 195 7 7 7 7 185 185 122 122 135 135 135 135 68
 68 68 68 68 114 114 114 114 114 114 114 8 8 8 8 7 7 7 7 7
 185 122 122 122 122 26 135 135 68 68 68 68 165 165 117 117 117 117 117 117
 52 52 52 52 52 7 7 7 7 122 122 122 122 122 26 26 26 68 68 68
 165 165 165 117 117 117 117 117 117 52 52 52 52 52 33 33 33 7 122 122
 122 122 122 146 146 146 146 210 210 165 165 165 117 117 117 117 117 162 52 52
 52 52 52 33 33 33 33 122 122 122 122 146 146 146 146 146 210 74 74 74
 74 117 117 117 117 162 162 162 52 52 52 76 33 33 33 33 173 173 173 173
 173 146 146 146 221 221 74 74 74 74 74 127 117 162 162 162 162 126 52 76
 76 76 76 33 173 173 173 173 173 173 146 146 221 221 221 74 74 74 74 127
 127 3 3 3 3 3 57 57 76 76 76 76 76 170 170 170 170 170 170 146
 221 221 221 118 118 74 74 74 127 127 3 3 3 3 3 57 57 57 57 76
 76 76 76 170 170 170 170 170 191 191 221 221 118 118 118 74 74 127 3 3
 3 3 3 3 57 57 57 57 76 76 76 76 170 170 170 170 191 191 191 191
 118 118 118 118 118 74 127 3 3 3 3 3 57 57 57 57 57 76 76 76
 76 216 216 216 216 191 191 191 191 150 118 118 118 118 78 78 3 3 3 3
 3 57 57 57 57 57 76 76 76 216 216 216 216 216 191 191 191 150 150 150
 150 150 13 78 78 3 3 3 3 57 57 57 57 57 57 28 28 80 80 80
 80 216 191 191 191 150 150 150 150 150 150 13 56 56 53 53 53 53 57 57
 57 57 57 28 28 28 80 80 80 80 80 25 25 191 150 150 150 150 150 150
 217 56 56 56 53 53 53 208 208 208 57 57 28 28 28 80 80 80 80 80
 25 25 25 150 150 150 150 150 217 217 217 56 56 77 77 208 208 208 208 208
 28 147 147 28 80 80 80 80 25 25 25 25 25 150 150 150 217 217 217 217
 56 56 77 77 77 149 149 149 149 28 147 147 147 147 80 80 80 25 25 25
 25 25 25 150 217 217 217 217 217 217 77 77 77 77 149 149 149 149 147 147
 147 147 147 80 80 25 25 25 25 25 25 25 150 212 212 212 217 217 217 77
 77 77 149 149 149 149 149 149 24 24 24 24 24 91 25 25 25 25 25 25
 25 212 212 212 212 212 212 47 47 149 149 149 149 149 149 149 149 24 24 24
 24 24 91 91 91 91 91 25 25 25 212 212 212 212 212 47 47 47 47 149
 149 149 149 149 149 24 24 24 24 24 91 91 91 91 91 91 91 91 177 177
 212 212 212 47 47 47 47 47 115 115 115 115 14 24 24 24 24 24 24 91
 91 91 91 91 91 91 91 177 177 177 177 177 47 47 47 47 47 115 115 115
 115 14 24 24 24 24 24 24 91 91 91 91 91 91 91 177 177 177 177 177
 177 47 47 47 47 47 115 115 115 115 14 24 24 24 24 24 24 91 91 91
 91 91 91 91 177 177 177 177 177 177 177 47 47 47 47 166 115 115 115 14
 24 24 24 24 24 24 91 91 104 104 104 242 242 242 177 177 177 177 177 177
 177 47 114 114 166 166 166 8 8 8 24 195 195 195 195 7 104 104 104 104
 242 242 242 242 177 177 177 177 177 177 114 114 114 114 114 166 8 8 8 8
 195 195 195 195 185 185 104 104 104 242 242 242 242 177 177 177 177 177 177 114
 114 114 114 114 114 8 8 8 8 195 195 195 195 185 185 185 185 242 242 242
 242 242 242 177 177 177 177 114 114 114 114 114 114 114 8 8 8 8 195 195
 195 7 185 185 185 185 228 242 242 242 242 242 68 68 68 68 114 114 114 114
 114 114 114 8 8 8 8 8 195 7 7 185 185 185 122 122 242 242 242 26
 26 68 68 68 68 63 114 114 114 114 114 114 8 8 8 8 8 7 7 7
 185 185 122 122 122 26 26 26 26 26 68 68 68 63 63 117 117 117 117 117
 117 8 52 52 52 52 7 7 7 7 122 122 122 122 26 26 26 26 26 68
 68 63 63 63 117 117 117 117 117 117 52 52 52 52 52 33 33 33 7 122
 122 122 122 26 26 26 26 26 210 63 63 63 63 117 117 117 117 117 117 52
 52 52 52 168 33 33 33 33 173 173 173 173 146 146 146 146 146 146 74 74
 74 74 74 117 117 117 117 162 162 168 168 168 168 168 33 33 173 173 173 173
 173 173 146 146 146 146 221 74 74 74 74 127 127 3 3 3 3 3 168 168
 168 168 76 76 173 173 173 173 173 173 173 173 146 146 146 74 74 74 74 74
 127 127 3 3 3 3 3 3 168 168 76 76 76 173 173 173 173 173 173 173
 173 146 221 221 118 74 74 74 74 127 127 3 3 3 3 3 3 168 168 57
 76 76 76 170 170 170 170 170 170 191 191 221 221 118 74 74 74 74 127 3
 3 3 3 3 3 57 57 57 57 57 76 76 216 216 216 216 216 216 191 207
 207 207 118 118 118 74 74 127 3 3 3 3 3 3 57 57 57 57 57 76
 76 216 216 216 216 216 216 191 207 207 207 118 118 118 74 74 127 3 3 3
 3 3 57 57 57 57 57 57 76 80 216 216 216 216 216 216 191 207 150 150
 150 150 56 56 56 56 53 53 53 53 53 57 57 57 57 57 57 28 80 80
 80 80 216 216 216 191 150 150 150 150 150 56 56 56 56 53 53 53 53 53
 208 57 57 57 57 28 28 80 80 80 80 80 216 216 191 150 150 150 150 150
 56 56 56 56 56 53 53 53 208 208 208 208 57 28 28 28 80 80 80 80
 80 80 25 25 150 150 150 150 217 217 56 56 56 56 77 77 208 208 208 208
 208 208 147 147 28 80 80 80 80 80 25 25 25 124 124 124 217 217 217 56
 56 56 56 77 77 77 208 208 208 208 208 147 147 147 80 80 80 80 80 25
 25 25 124 124 217 217 217 217 217 56 56 77 77 77 77 77 77 208 208 208
 147 147 147 147 80 80 80 25 25 25 25 25 124 217 212 212 212 217 217 217
 77 77 77 77 77 149 149 149 149 24 24 24 24 24 91 91 25 25 25 25
 25 124 212 212 212 212 212 217 47 47 77 77 77 149 149 149 149 24 24 24
 24 24 24 91 91 91 91 91 25 34 34 212 212 212 212 212 47 47 47 47
 115 115 115 149 149 24 24 24 24 24 24 91 91 91 91 91 91 91 34 177
 177 212 212 212 47 47 47 47 47 115 115 115 115 115 24 24 24 24 24 24
 91 91 91 91 91 91 91 177 177 177 177 177 177 47 47 47 47 47 115 115
 115 115 115 24 24 24 24 24 24 91 91 91 91 91 91 91 177 177 177 177
 177 177 47 47 47 47 47 115 115 115 115 115 24 24 24 24 24 24 24 91
 91 104 104 104 104 177 177 177 177 177 177 177 47 47 47 47 115 115 115 115
 115 24 24 24 24 24 24 24 201 104 104 104 104 242 242 177 177 177 177 177
 177 177 47 47 114 115 166 115 50 8 8 24 195 195 55 55 55 201 104 104
 104 104 242 242 242 177 177 177 177 177 177 114 114 114 114 114 50 50 8 8
 8 8 195 55 55 55 201 201 104 104 242 242 242 242 177 177 177 177 177 177
 114 114 114 114 114 50 50 8 8 8 195 195 55 55 55 185 185 201 242 242
 242 242 242 242 177 177 177 177 177 114 114 114 114 114 50 50 8 8 8 8
 195 55 55 185 185 185 185 242 242 242 242 242 242 177 177 177 177 177 114 114
 114 114 114 50 50 8 8 8 8 195 55 55 185 185 185 122 122 242 242 242
 26 26 68 68 63 63 63 63 114 114 114 114 50 50 8 8 8 8 55 55
 55 185 185 122 122 122 26 26 26 26 26 26 63 63 63 63 63 117 117 117
 117 50 50 8 8 8 168 7 7 7 185 122 122 122 122 26 26 26 26 26
 26 63 63 63 63 63 117 117 117 117 117 50 52 52 52 168 168 33 33 7
 122 122 122 122 26 26 26 26 26 26 63 63 63 63 63 117 117 117 117 117
 168 168 168 168 168 168 33 173 173 173 173 173 173 26 26 26 26 26 26 74
 74 74 74 127 127 117 117 3 3 3 168 168 168 168 168 168 173 173 173 173
 173 173 173 173 146 146 146 74 74 74 74 74 127 127 127 3 3 3 3 168
 168 168 168 168 168 173 173 173 173 173 173 173 173 146 146 74 74 74 74 74
 74 127 127 3 3 3 3 3 168 168 168 168 168 220 173 173 173 173 173 173
 173 173 173 207 74 74 74 74 74 74 127 127 3 3 3 3 3 168 168 168
 57 220 220 220 173 173 173 173 173 173 173 207 207 186 186 186 74 74 74 127
 3 3 3 3 3 3 168 168 168 57 220 220 220 216 216 216 216 216 216 216
 207 207 207 186 186 74 74 74 127 3 3 3 3 3 3 57 57 57 57 220
 220 220 216 216 216 216 216 216 207 207 207 207 207 186 74 74 74 127 3 3
 3 3 3 3 57 57 57 57 220 220 80 216 216 216 216 216 216 216 207 207
 207 207 186 56 74 56 53 53 53 53 53 53 3 57 57 57 57 220 80 80
 80 80 216 216 216 216 216 207 150 150 150 217 56 56 56 56 53 53 53 53
 53 208 208 189 57 57 220 80 80 80 80 80 80 216 216 124 124 124 124 217
 217 56 56 56 56 56 53 53 53 208 208 208 189 189 28 28 80 80 80 80
 80 80 80 25 124 124 124 124 217 217 217 56 56 56 56 77 77 208 208 208
 208 208 189 147 147 80 80 80 80 80 80 80 25 124 124 124 124 217 217 217
 56 56 56 56 77 77 77 208 208 208 208 189 147 147 80 80 80 80 80 80
 80 25 124 124 124 124 217 217 217 217 56 56 56 77 77 77 77 77 208 208
 189 147 147 147 80 80 80 80 80 25 34 34 124 124 124 212 212 217 217 217
 56 77 77 77 77 77 77 149 149 149 24 24 24 24 61 61 91 91 91 34
 34 34 124 124 212 212 212 212 217 47 47 77 77 77 77 77 149 149 24 24
 24 24 24 24 91 91 91 91 91 34 34 34 34 212 212 212 212 47 47 47
 47 115 115 115 115 149 24 24 24 24 24 24 91 91 91 91 91 91 34 34
 34 34 177 212 212 47 47 47 47 47 115 115 115 115 115 24 24 24 24 24
 24 91 91 91 91 91 91 34 34 177 177 177 177 177 47 47 47 47 47 115
 115 115 115 115 24 24 24 24 24 24 213 91 91 91 91 91 91 177 177 177
 177 177 177 47 47 47 47 47 115 115 115 115 115 24 24 24 24 24 24 213
 201 201 104 104 104 104 177 177 177 177 177 177 177 47 47 47 47 115 115 115
 115 115 197 24 197 24 55 55 201 201 201 104 104 104 242 177 177 177 177 177
 177 177 177 47 30 30 30 115 115 50 50 197 197 55 55 55 55 55 201 201
 104 104 104 242 242 242 177 177 177 177 177 177 30 30 30 30 30 50 50 50
 50 8 55 55 55 55 55 201 201 201 201 242 242 242 242 177 177 177 177 177
 177 30 30 30 30 30 50 50 50 50 8 55 55 55 55 55 55 201 201 201
 242 242 242 242 242 177 177 177 177 177 30 30 30 30 30 50 50 50 50 8
 55 55 55 55 55 55 185 201 201 242 242 242 242 242 177 177 177 63 63 30
 30 30 30 30 50 50 50 50 8 55 55 55 55 55 55 185 215 215 242 242
 242 242 242 63 63 63 63 63 63 30 30 30 30 50 50 50 50 8 55 55
 55 55 55 185 122 215 215 215 26 26 26 26 63 63 63 63 63 63 63 30
 30 30 50 50 50 50 8 168 55 55 55 55 215 215 215 215 26 26 26 26
 26 63 63 63 63 63 63 63 117 117 117 50 50 50 168 168 168 168 55 116
 173 173 173 173 215 26 26 26 26 26 63 63 63 63 63 63 63 117 117 117
 3 168 168 168 168 168 168 116 116 173 173 173 173 173 26 26 26 26 26 63
 63 63 63 63 63 63 117 3 3 3 168 168 168 168 168 168 168 173 173 173
 173 173 173 173 173 26 26 26 74 74 74 74 74 127 127 127 3 3 3 168
 168 168 168 168 168 168 173 173 173 173 173 173 173 173 26 26 74 74 74 74
 74 74 127 127 3 3 3 3 168 168 168 168 168 168 220 220 173 173 173 173
 173 173 173 173 207 186 186 186 74 74 74 127 127 3 3 3 3 3 168 168
 168 168 220 220 220 4 173 173 173 173 173 173 207 207 186 186 186 186 74 74
 74 3 3 3 3 3 3 168 168 168 220 220 220 220 4 216 216 216 216 216
 207 207 207 207 186 186 186 74 74 74 3 3 3 3 3 3 3 168 168 220
 220 220 220 4 216 216 216 216 216 207 207 207 207 186 186 186 74 74 74 3
 3 3 3 3 3 3 57 57 220 220 220 220 4 216 216 216 216 216 207 207
 207 207 207 17 17 17 56 56 53 53 53 53 53 189 189 189 57 220 220 220
 80 80 80 216 216 216 216 12 207 207 207 124 217 56 56 56 56 53 53 53
 53 53 189 189 189 189 220 220 220 80 80 80 80 80 216 216 12 124 124 124
 124 217 56 56 56 56 56 53 53 53 208 189 189 189 189 220 220 80 80 80
 80 80 80 80 124 124 124 124 124 124 217 217 56 56 56 56 77 77 208 208
 208 189 189 189 111 80 80 80 80 80 80 80 80 124 124 124 124 124 124 217
 217 56 56 56 56 77 77 77 208 208 189 189 189 92 92 80 80 80 80 80
 80 80 124 124 124 124 124 217 217 217 56 56 56 56 77 77 77 77 77 189
 189 189 92 92 92 61 61 61 61 61 34 34 34 34 124 124 217 217 217 217
 217 56 77 77 77 77 77 77 189 189 189 24 92 92 61 61 61 61 61 34
 34 34 34 34 124 212 212 212 217 217 47 47 77 77 77 77 77 189 189 92
 24 24 24 24 61 61 91 91 91 34 34 34 34 34 212 212 212 212 47 47
 47 47 115 115 115 115 149 24 24 1 1 1 1 79 79 79 79 79 79 34
 34 34 34 177 177 177 47 47 47 47 47 115 115 115 115 115 1 1 1 1
 1 1 213 79 79 79 79 79 79 34 177 177 177 177 177 47 47 47 47 47
 115 115 115 115 115 1 1 1 1 1 1 213 213 79 79 79 79 79 177 177
 177 177 177 177 47 47 47 47 47 115 115 115 115 197 197 197 197 1 1 213
 213 213 201 201 201 201 201 177 177 177 177 177 177 177 47 47 47 47 115 115
 115 115 197 197 197 197 197 55 55 213 201 201 201 201 201 201 177 177 177 177
 177 177 177 202 202 202 30 30 30 50 50 197 197 197 55 55 55 55 55 201
 201 201 201 201 242 242 177 177 177 177 177 177 202 202 30 30 30 30 50 50
 50 50 197 55 55 55 55 55 201 201 201 201 201 242 242 242 177 177 177 177
 177 202 30 30 30 30 30 50 50 50 50 50 55 55 55 55 55 55 201 201
 201 242 242 242 242 242 177 177 177 177 177 30 30 30 30 30 50 50 50 50
 50 55 55 55 55 55 55 201 215 215 242 242 242 242 242 177 177 63 63 102
 102 30 30 30 30 50 50 50 50 50 55 55 55 55 55 55 215 215 215 215
 215 242 242 242 63 63 63 63 63 102 102 30 30 30 50 50 50 50 50 55
 55 55 55 55 55 215 215 215 215 215 215 26 26 63 63 63 63 63 63 102
 30 30 30 50 50 50 50 168 55 55 55 55 55 215 215 215 215 215 215 215
 26 26 63 63 63 63 63 63 63 30 30 30 50 50 168 168 168 168 168 116
 116 116 116 215 215 215 215 215 26 26 26 63 63 63 63 63 63 63 63 140
 140 140 168 168 168 168 168 168 116 116 116 116 173 173 215 215 215 26 26 26
 63 63 63 63 63 63 63 140 140 140 140 168 168 168 168 168 168 116 116 116
 116 173 173 173 173 215 26 26 26 74 74 74 74 74 127 127 140 140 140 140
 168 168 168 168 168 168 116 116 116 173 173 173 173 173 173 26 186 186 74 74
 74 74 74 127 127 140 140 140 140 168 168 168 168 168 168 220 116 116 173 173
 173 173 173 173 173 186 186 186 186 186 74 74 74 127 3 3 3 3 168 168
 168 168 220 220 220 4 4 173 173 173 173 173 173 207 207 186 186 186 186 186
 74 74 3 3 3 3 3 3 168 168 168 220 220 220 4 4 130 216 216 216
 216 207 207 207 17 186 186 186 186 74 74 3 3 3 3 3 3 168 168 168
 220 220 220 4 4 130 216 216 216 216 207 207 207 17 17 17 17 17 74 74
 3 3 3 3 3 3 168 168 220 220 220 220 4 130 130 216 216 216 216 12
 12 207 17 17 17 17 17 17 56 3 3 3 3 3 189 189 189 220 220 220
 220 4 130 130 216 216 216 12 12 12 12 12 17 17 17 56 56 56 53 53