# vtk DataFile Version 2.0
Data set from ImportExport Version 6.5.171.b0b162591
ASCII

DATASET RECTILINEAR_GRID
DIMENSIONS 30 30 30
X_COORDINATES 30 float
-1.250000 1.250000 3.750000 6.250000 8.750000 11.250000 13.750000 16.250000 18.750000 21.250000 23.750000 26.250000 28.750000 31.250000 33.750000 36.250000 38.750000 41.250000 43.750000 46.250000 48.750000 
51.250000 53.750000 56.250000 58.750000 61.250000 63.750000 66.250000 68.750000 71.250000 
Y_COORDINATES 30 float
-1.250000 1.250000 3.750000 6.250000 8.750000 11.250000 13.750000 16.250000 18.750000 21.250000 23.750000 26.250000 28.750000 31.250000 33.750000 36.250000 38.750000 41.250000 43.750000 46.250000 48.750000 
51.250000 53.750000 56.250000 58.750000 61.250000 63.750000 66.250000 68.750000 71.250000 
Z_COORDINATES 30 float
-1.250000 1.250000 3.750000 6.250000 8.750000 11.250000 13.750000 16.250000 18.750000 21.250000 23.750000 26.250000 28.750000 31.250000 33.750000 36.250000 38.750000 41.250000 43.750000 46.250000 48.750000 
51.250000 53.750000 56.250000 58.750000 61.250000 63.750000 66.250000 68.750000 71.250000 
CELL_DATA 24389
SCALARS FeatureIds int 1
LOOKUP_TABLE default
 92 92 92 124 123 123 123 123 123 229 229 229 229 229 229 59 59 119 119 119
 119 119 145 145 145 145 145 54 92 92 92 92 124 123 123 123 123 123 229 229
 229 229 229 229 59 59 119 119 119 119 119 145 145 145 145 145 54 92 92 92
 92 124 123 123 123 123 220 220 220 220 220 81 81 81 59 119 119 119 119 119
 145 145 145 145 145 54 92 92 92 92 124 123 123 123 55 55 55 220 220 220
 81 81 81 81 119 119 119 101 101 101 101 145 145 145 54 92 92 92 92 124
 11 123 55 55 55 55 55 220 220 81 81 81 81 81 101 101 101 101 101 101
 91 91 91 91 92 11 11 11 11 11 11 55 55 55 55 55 55 81 81 81
 81 81 101 101 101 101 101 101 101 91 91 91 91 92 11 11 11 11 11 11
 11 55 55 55 55 55 81 81 81 81 26 101 101 101 101 101 101 101 91 91
 91 91 116 11 11 11 11 11 176 176 176 231 231 55 55 207 207 207 207 9
 9 21 101 101 101 101 101 91 116 116 116 116 116 11 11 11 176 176 176 176
 231 231 231 231 231 207 207 9 9 9 21 21 21 101 101 101 116 116 116 116
 116 116 11 11 176 176 176 176 176 231 231 231 231 231 207 9 9 9 9 9
 21 21 21 101 116 116 116 116 116 116 116 116 11 176 176 176 176 236 236 231
 231 231 231 207 9 9 9 9 9 21 21 21 21 116 116 116 116 116 116 116
 116 176 176 176 176 236 236 236 236 231 231 231 207 9 9 9 9 9 9 9
 9 113 113 113 113 177 177 177 116 116 176 176 176 236 236 236 236 236 231 231
 135 207 9 9 9 9 9 9 9 9 113 113 113 113 113 177 177 116 116 176
 176 176 236 77 77 236 236 236 135 135 64 64 64 9 9 9 9 9 9 113
 113 113 113 113 113 177 36 36 36 36 77 77 77 77 78 236 135 135 135 135
 64 64 64 79 79 9 9 237 237 113 113 113 113 113 113 36 36 36 36 214
 78 78 78 78 78 135 135 135 135 135 64 64 79 79 79 237 237 237 165 165
 113 113 113 113 36 36 36 214 214 214 78 78 78 78 135 135 135 135 135 135
 64 79 79 79 237 237 237 165 165 165 113 113 36 36 36 36 214 214 214 214
 214 214 135 135 135 135 135 135 135 135 79 79 237 237 237 165 165 237 237 237
 132 132 132 36 214 214 214 214 214 214 214 214 135 135 135 135 135 135 135 135
 135 165 165 165 165 237 237 230 132 132 132 132 132 214 214 214 214 214 214 214
 214 135 60 60 60 60 60 135 135 135 165 165 165 165 237 230 230 132 132 132
 132 132 214 214 214 214 214 214 214 214 60 60 60 60 60 60 135 135 135 165
 165 165 165 237 230 132 132 132 132 132 132 214 214 214 214 214 214 214 34 95
 95 60 60 60 60 60 60 60 31 165 165 165 237 132 132 132 132 132 132 132
 214 214 214 214 214 214 34 34 95 95 95 68 68 68 68 68 68 31 31 165
 132 132 132 132 132 132 132 132 132 89 89 121 121 121 121 34 34 95 95 68
 68 68 68 68 68 68 31 31 165 132 132 132 132 132 132 132 213 213 89 89
 121 121 121 121 121 95 95 95 68 68 68 68 68 68 178 178 178 143 143 143
 143 143 143 213 213 213 196 196 89 121 121 121 121 121 121 117 117 68 68 68
 68 68 68 178 178 178 178 143 143 143 143 143 213 213 213 213 89 89 121 121
 121 121 121 121 117 117 68 68 68 68 68 178 178 178 178 178 10 10 10 143
 10 213 213 213 213 92 124 123 121 121 121 121 121 117 117 229 229 68 68 68
 178 178 119 119 119 10 10 10 10 10 213 213 92 92 92 124 123 123 123 121
 121 121 229 229 229 229 229 59 59 119 119 119 119 119 10 10 10 10 10 213
 213 92 92 92 92 123 123 123 123 123 229 229 229 229 229 59 59 59 119 119
 119 119 119 145 145 145 145 145 145 92 92 92 92 92 123 123 123 123 123 229
 229 229 229 229 59 59 59 119 119 119 119 119 145 145 145 145 145 145 92 92
 92 92 92 123 123 123 123 123 220 220 220 220 220 59 59 59 119 119 119 119
 119 145 145 145 145 145 145 92 92 92 92 92 123 123 123 55 55 55 220 220
 220 220 81 59 59 119 119 119 101 101 101 145 145 145 145 145 92 92 92 92
 92 123 123 123 55 55 55 55 220 220 220 81 81 26 26 101 101 101 101 101
 101 145 145 145 145 92 11 11 11 11 11 11 55 55 55 55 55 55 220 220
 81 81 26 101 101 101 101 101 101 101 101 91 91 91 152 11 11 11 11 11
 11 11 55 55 55 55 55 220 207 207 207 26 26 101 101 101 101 101 101 101
 91 91 152 152 11 11 11 11 11 176 176 176 55 55 55 55 207 207 207 207
 9 9 101 101 101 101 101 101 101 116 116 116 116 116 11 11 11 176 176 176
 176 231 231 231 231 207 207 207 207 9 9 9 21 21 101 101 101 116 116 116
 116 116 116 11 11 176 176 162 176 176 231 154 231 231 207 207 207 9 9 9
 9 9 21 21 101 116 116 116 116 116 116 116 116 11 176 176 176 176 176 231
 231 231 231 207 207 207 9 9 9 9 9 9 9 212 113 113 116 116 116 116
 116 116 176 176 176 176 176 236 236 231 231 231 207 207 9 9 9 9 9 9
 9 9 113 113 113 113 113 116 116 116 116 176 176 176 176 236 236 236 236 231
 231 207 207 9 9 9 9 9 9 9 212 113 113 113 113 113 113 177 36 36
 36 176 176 176 77 77 236 236 236 135 135 135 64 9 9 9 9 9 9 212
 113 113 113 113 113 113 113 36 36 36 36 214 77 77 77 78 236 135 135 135
 135 135 135 9 9 9 9 9 237 237 113 113 113 113 113 113 36 36 36 36
 214 214 78 78 78 135 135 135 135 135 135 135 135 79 79 79 237 237 237 237
 165 113 113 113 36 36 36 36 36 214 214 214 214 78 135 135 135 135 135 135
 135 135 79 79 237 237 237 237 237 165 165 113 36 36 36 36 36 214 214 214
 214 214 214 135 135 135 135 135 135 135 135 135 135 237 237 237 237 165 237 237
 237 36 36 36 36 36 214 214 214 214 214 214 214 135 135 135 135 135 135 135
 135 135 165 165 165 165 237 237 237 132 132 132 132 27 214 214 214 214 214 214
 214 214 135 60 60 60 60 60 135 135 135 165 165 165 165 237 237 132 132 132
 132 132 132 214 214 214 214 214 214 214 214 135 60 60 60 60 60 135 135 31
 31 165 165 165 237 132 132 132 132 132 132 132 214 214 214 214 214 214 214 95
 95 95 60 60 60 60 60 60 31 31 31 165 165 237 132 132 132 132 132 132
 132 214 214 214 214 214 214 34 95 95 95 68 68 68 68 68 68 31 31 31
 43 169 169 132 132 132 132 132 132 151 89 89 89 121 121 121 121 95 95 95
 68 68 68 68 68 68 68 31 31 43 143 143 143 143 132 132 132 213 151 89
 89 89 121 121 121 121 95 95 95 68 68 68 68 68 68 178 178 178 178 143
 143 143 143 143 213 213 213 151 89 89 89 121 121 121 121 121 95 95 68 68
 68 68 68 178 178 178 178 178 143 143 143 143 143 213 213 213 213 89 89 89
 121 121 121 121 121 117 117 68 68 68 68 68 178 178 178 178 178 10 10 10
 143 10 213 213 213 213 89 89 89 121 121 121 121 121 229 229 229 229 59 59
 178 178 178 178 178 178 10 10 10 10 10 213 213 92 92 92 92 123 123 123
 121 121 229 229 229 229 229 59 59 59 119 119 119 119 119 145 145 10 10 10
 145 213 92 92 92 92 123 123 123 123 123 229 229 229 229 229 59 59 59 59
 119 119 119 119 145 145 145 145 145 145 92 92 92 92 92 123 123 123 123 123
 229 229 229 229 229 59 59 59 59 119 119 119 119 145 145 145 145 145 145 92
 92 92 92 92 123 123 123 123 123 229 229 220 220 220 59 59 59 59 119 119
 119 119 145 145 145 145 145 145 92 92 92 92 92 123 123 123 55 55 55 220
 220 220 220 59 59 59 59 119 119 101 101 101 145 145 145 145 145 92 92 92
 92 11 175 175 175 55 55 55 220 220 220 220 220 59 26 26 26 101 101 101
 101 101 145 145 145 145 92 11 11 11 11 11 175 175 55 55 55 55 55 220
 220 220 26 26 26 26 101 101 101 101 101 101 145 145 152 152 11 11 11 11
 11 11 175 55 55 55 55 55 220 207 207 26 26 26 26 101 101 101 101 101
 101 152 152 152 152 11 11 11 11 11 176 176 66 55 55 55 207 207 207 207
 207 82 26 26 101 101 101 101 101 101 152 152 152 152 11 11 11 11 176 176
 176 176 231 231 231 207 207 207 207 207 82 9 9 101 101 101 101 101 152 152
 152 152 152 11 11 11 176 176 176 176 176 231 231 231 207 207 207 207 207 9
 9 9 9 212 212 212 212 116 152 152 152 152 116 11 11 176 176 176 176 176
 231 231 231 207 207 207 207 9 9 9 9 9 9 212 212 212 113 113 116 116
 116 116 116 176 176 176 176 176 176 231 231 231 207 207 207 207 9 9 9 9
 9 9 212 212 113 113 113 2 116 50 50 50 176 176 176 176 236 236 236 231
 231 207 207 207 207 9 9 9 9 9 212 212 212 113 113 113 113 113 113 36
 36 36 36 176 176 77 77 236 236 135 135 135 135 9 9 9 9 9 9 9
 212 113 113 113 113 113 113 113 36 36 36 36 36 214 77 77 78 135 135 135
 135 135 135 135 9 9 9 9 9 212 237 113 113 113 113 113 113 36 36 36
 36 36 214 18 18 18 135 135 135 135 135 135 135 135 153 153 153 237 237 237
 237 165 113 113 113 36 36 36 36 36 214 214 18 18 18 18 135 135 135 135
 135 135 135 135 153 153 237 237 237 237 165 165 113 36 36 36 36 36 36 214
 214 18 18 18 18 135 135 135 135 135 135 135 135 153 237 237 237 237 165 165
 237 237 36 36 36 36 36 214 214 214 214 18 18 18 135 135 135 60 135 135
 135 135 135 165 165 165 165 165 237 237 132 132 36 27 27 27 214 214 214 214
 214 214 214 135 28 60 60 28 28 135 135 31 31 165 165 165 165 237 132 132
 132 132 132 27 27 214 214 214 214 214 214 214 60 60 60 60 60 60 60 31
 31 31 31 165 165 169 169 169 132 132 132 132 132 27 214 214 214 214 214 214
 214 60 60 60 60 60 60 60 31 31 31 31 43 169 169 169 169 132 132 132
 132 132 89 214 214 214 214 214 121 95 95 95 68 68 68 68 68 31 31 31
 31 43 169 169 169 169 132 132 132 151 151 89 89 89 89 121 121 121 95 95
 95 68 68 68 68 68 68 31 31 31 43 169 169 143 3 3 3 132 151 151
 89 89 89 89 121 121 121 95 95 95 68 68 68 68 68 178 178 178 178 178
 140 143 143 143 3 3 213 213 151 89 89 89 89 121 121 121 121 95 95 68
 68 68 68 68 178 178 178 178 178 140 143 143 143 143 213 213 213 151 89 89
 89 89 121 121 121 121 95 95 68 68 68 68 178 178 178 178 178 178 178 131
 131 131 131 213 213 213 151 89 89 89 89 121 121 121 121 229 229 229 59 59
 59 178 178 178 178 178 178 178 131 131 131 10 213 213 92 92 92 92 123 123
 123 121 121 121 229 229 229 59 59 59 59 178 178 178 178 178 145 145 131 131
 145 145 213 92 92 92 92 123 123 86 86 86 86 229 229 229 59 59 59 59
 59 178 178 178 178 145 145 145 145 145 145 145 92 92 92 92 123 123 86 86
 86 86 229 229 229 59 59 59 59 59 119 119 119 145 145 145 145 145 145 145
 145 92 92 92 92 175 175 175 86 86 86 229 229 220 220 59 59 59 59 119
 119 119 145 145 145 145 145 145 145 145 92 92 92 175 175 175 175 175 55 55
 220 220 220 220 59 59 59 26 119 119 101 101 145 145 145 145 145 145 145 127
 127 175 175 175 175 175 175 55 55 220 220 220 220 59 59 26 26 26 101 101
 101 101 173 145 145 145 145 145 127 127 11 175 175 175 175 175 55 55 55 55
 220 207 207 26 26 26 26 101 101 101 101 173 173 152 152 152 152 152 11 11
 11 11 175 66 66 66 55 55 55 207 207 207 26 26 26 26 101 101 101 101
 173 173 152 152 152 152 152 11 11 11 11 176 66 66 66 55 55 207 207 207
 207 82 82 26 26 101 101 101 101 173 173 152 152 152 152 152 11 11 11 176
 176 66 66 66 231 231 207 207 207 207 82 82 82 82 212 212 212 212 212 152
 152 152 152 152 152 11 11 176 176 176 176 176 231 231 231 207 207 207 207 82
 82 82 9 212 212 212 212 212 212 152 152 152 152 152 176 176 176 176 176 176
 176 231 231 231 207 207 207 207 82 9 9 9 212 212 212 212 212 212 2 152
 50 50 50 50 176 176 176 176 176 176 231 231 231 207 207 207 207 9 9 9
 9 9 212 212 212 212 2 2 2 50 50 50 50 176 176 176 176 176 176 236
 231 231 207 207 207 207 9 9 9 9 9 212 212 212 212 2 2 2 50 50
 50 50 36 36 176 176 176 8 236 76 76 171 171 171 171 9 9 183 183 9
 212 212 212 2 2 2 2 50 50 36 36 36 36 36 8 18 18 18 76 135
 135 171 171 171 135 153 183 183 183 212 212 206 206 2 2 2 50 50 36 36
 36 36 36 214 18 18 18 135 135 135 135 135 135 135 153 153 153 153 170 170
 206 206 2 2 2 36 36 36 36 36 36 36 214 18 18 18 18 135 135 135
 135 135 135 153 153 153 153 170 170 237 165 165 165 36 36 36 36 36 36 36
 214 214 18 18 18 18 135 135 135 135 135 135 153 153 153 170 170 170 170 165
 165 237 36 36 36 36 36 36 36 214 214 214 18 18 18 135 28 28 28 28
 28 28 153 153 170 170 170 165 165 165 237 132 36 36 27 27 27 214 214 214
 214 214 214 28 28 28 28 28 28 28 28 28 31 31 170 170 179 179 169 169
 132 132 27 27 27 27 214 214 214 214 214 214 214 28 28 28 28 28 28 28
 31 31 31 31 43 179 169 169 169 169 132 132 132 27 27 214 214 214 214 214
 214 28 28 28 28 28 28 28 28 31 31 31 31 43 43 169 169 169 169 132
 132 132 151 89 89 214 214 214 1 1 95 95 95 68 68 68 68 68 31 31
 31 31 43 43 169 169 169 169 3 132 151 151 89 89 89 89 1 1 1 95
 95 95 68 68 68 68 68 31 31 31 31 43 140 169 169 3 3 3 3 151
 151 89 89 89 89 1 1 1 95 95 95 68 68 68 68 68 178 178 178 178
 140 140 140 3 3 3 3 3 151 151 89 89 89 89 1 1 1 1 95 95
 68 68 68 68 68 178 178 178 178 178 140 140 140 3 3 3 213 151 151 89
 89 89 89 1 1 1 1 95 95 68 68 68 68 178 178 178 178 178 178 140
 140 131 131 131 213 213 151 151 89 89 89 89 1 1 1 1 1 229 229 59
 59 59 178 178 178 178 178 178 140 131 131 131 131 131 213 92 92 92 92 89
 123 86 1 1 1 229 229 229 59 59 59 59 178 178 178 178 178 145 145 131
 131 131 145 145 92 92 92 92 86 86 86 86 86 86 86 229 229 59 59 59
 59 59 178 178 178 109 109 109 145 145 145 145 145 92 92 92 146 86 86 86
 86 86 86 86 229 229 59 59 59 59 59 119 119 178 109 109 109 145 145 145
 145 145 92 92 146 146 175 175 86 86 86 86 86 229 220 59 59 59 59 59
 119 119 109 109 109 109 145 145 145 145 145 127 146 146 175 175 175 175 175 86
 86 158 220 220 220 59 59 59 59 26 119 101 109 109 109 145 145 145 145 145
 127 127 127 175 175 175 175 175 158 158 158 220 220 220 59 59 26 26 26 101
 101 173 173 173 173 145 145 145 152 127 127 127 175 175 175 175 175 158 158 158
 158 220 207 26 26 26 26 26 101 101 173 173 173 173 173 152 152 152 152 127
 127 175 175 175 66 66 66 158 158 158 207 207 207 26 26 26 26 101 101 173
 173 173 173 152 152 152 152 152 152 11 175 175 66 66 66 66 66 158 207 207
 207 207 82 82 82 82 197 101 173 173 173 173 152 152 152 152 152 152 11 11
 176 66 66 66 66 66 231 207 207 207 82 82 82 82 82 212 212 212 212 173
 152 152 152 152 152 152 152 11 176 176 66 66 66 66 66 231 207 207 207 82
 82 82 82 82 212 212 212 212 212 212 152 152 152 152 152 152 176 176 176 105
 176 176 231 231 231 207 207 207 82 82 82 82 82 212 212 212 212 212 50 50
 50 50 50 50 50 105 105 105 105 105 105 231 76 76 207 207 207 207 82 82
 183 183 212 212 212 212 212 50 50 50 50 50 50 50 105 105 105 105 105 105
 105 76 76 76 171 171 171 171 183 183 183 212 212 212 212 212 50 50 50 50
 50 50 50 50 105 105 105 8 8 76 76 76 171 171 171 171 171 183 183 183
 183 212 212 212 206 2 2 50 50 50 50 36 36 36 36 8 8 8 76 76
 171 171 171 171 171 171 153 153 183 183 212 212 206 206 206 2 50 50 50 36
 36 36 36 36 18 18 18 18 171 171 171 171 171 171 171 153 153 153 153 170
 170 206 206 206 2 50 50 36 36 36 36 36 36 18 18 18 18 18 171 171
 171 171 171 171 153 153 153 153 170 170 170 206 206 206 50 36 36 36 36 36
 36 36 214 18 18 18 18 135 171 171 28 28 171 153 153 153 170 170 170 170
 206 206 206 36 36 36 36 36 36 36 214 214 214 18 18 18 28 28 28 28
 28 28 153 153 153 170 170 170 170 179 179 179 36 36 36 27 27 27 27 214
 214 214 214 18 18 28 28 28 28 28 28 28 31 31 31 43 170 179 179 179
 169 169 132 27 27 27 27 27 214 214 214 214 93 241 241 241 28 28 28 28
 28 31 31 31 43 43 179 179 169 169 169 169 132 132 27 27 27 214 214 214
 93 93 241 241 241 241 28 28 28 28 31 31 31 43 43 43 169 169 169 169
 169 132 187 151 89 89 89 214 214 1 42 241 241 241 241 68 68 28 31 31
 31 31 43 43 43 169 169 169 169 3 3 151 151 89 89 89 89 1 1 1
 42 95 95 68 68 68 68 100 31 31 31 43 43 140 140 169 3 3 3 3
 151 151 89 89 89 89 1 1 1 1 95 95 68 68 68 68 100 31 31 31
 43 140 140 140 140 3 3 3 3 151 151 89 89 89 89 1 1 1 1 42
 200 200 68 200 100 100 178 178 178 178 140 140 140 140 3 3 3 213 151 151
 89 89 89 89 1 1 1 1 161 200 200 200 200 100 178 178 178 178 178 140
 140 140 140 131 131 131 213 151 151 89 89 89 89 1 1 1 161 161 161 200
 59 59 59 178 178 178 178 178 178 140 140 131 131 131 131 213 92 92 92 89
 89 86 86 86 86 86 161 229 59 59 59 59 59 178 178 178 178 178 109 109
 131 131 131 145 145 15 15 15 15 146 86 86 86 86 86 86 86 229 59 59
 59 59 163 163 110 110 109 109 109 109 145 145 145 145 15 146 146 146 146 86
 86 86 86 86 86 86 229 59 59 59 59 163 163 110 110 109 109 109 109 145
 145 145 145 146 146 146 146 175 175 86 86 86 86 86 86 94 59 59 59 59
 163 163 110 110 109 109 109 109 145 145 145 145 146 146 146 146 175 175 175 175
 86 158 158 158 94 94 59 59 59 163 110 110 110 109 109 109 173 145 145 145
 145 127 127 127 175 175 175 175 175 158 158 158 158 94 94 94 59 26 26 26
 110 173 173 173 173 173 173 145 152 152 127 127 127 175 175 175 175 175 158 158
 158 158 158 94 94 197 197 197 197 197 101 173 173 173 173 173 152 152 152 127
 127 127 175 175 175 66 66 66 158 158 158 207 207 82 247 247 247 197 197 197
 173 173 173 173 152 152 152 152 152 152 127 175 175 66 66 66 66 66 158 207
 207 207 82 82 82 197 197 197 197 173 173 173 173 152 152 152 152 152 152 152
 175 175 66 66 66 66 66 66 207 207 82 82 82 82 82 197 197 212 212 212
 212 152 152 152 152 152 152 152 105 105 105 105 66 66 66 66 207 207 207 82
 82 82 82 82 82 212 212 212 212 212 152 152 152 152 152 152 152 105 105 105
 105 105 105 66 76 76 207 207 82 82 82 82 82 82 212 212 212 212 212 50
 50 50 50 50 50 50 105 105 105 105 105 105 105 76 76 76 17 82 82 82
 82 183 183 212 212 212 212 212 50 50 50 50 50 50 50 105 105 105 105 105
 105 105 76 76 76 17 171 171 171 183 183 183 212 212 212 212 212 50 50 50
 50 50 50 50 105 105 105 8 8 8 76 76 76 76 171 171 171 171 153 183
 183 183 212 212 212 206 50 50 50 50 50 50 36 36 36 8 8 8 8 193
 76 76 171 171 171 171 171 153 153 183 183 212 212 206 206 206 50 50 50 50
 36 36 36 36 8 8 8 193 193 193 171 171 171 171 171 171 153 153 153 153
 170 170 206 206 206 206 50 50 36 36 36 36 36 36 18 18 18 193 193 171
 171 171 171 171 171 153 153 153 153 170 170 170 206 206 206 50 36 36 36 36
 36 36 36 93 18 18 193 193 171 171 171 171 171 171 153 153 153 170 170 170
 170 206 206 206 36 36 36 36 36 36 36 214 93 93 93 93 93 28 28 28
 28 28 28 153 153 153 170 170 170 179 179 179 179 179 36 36 27 27 27 27
 214 93 93 93 93 93 28 28 28 28 28 28 28 31 31 31 43 43 179 179
 179 179 179 132 27 159 159 159 159 214 93 93 93 93 93 241 241 241 28 28
 28 28 31 31 31 43 43 179 179 179 169 169 169 159 159 159 159 159 214 24
 93 93 93 42 241 241 241 28 28 28 31 31 31 31 43 43 43 179 169 169
 169 169 187 187 187 187 187 187 24 42 42 42 42 241 241 241 68 28 100 31
 31 31 31 43 43 43 169 169 169 169 3 187 187 187 187 187 89 89 42 42
 42 42 42 42 200 200 200 100 100 31 31 31 43 43 140 140 140 169 3 3
 187 187 187 187 89 89 89 1 42 42 42 42 42 200 200 200 100 100 100 31
 31 43 140 140 140 140 140 3 3 3 151 151 89 89 89 89 1 1 42 42
 42 200 200 200 200 100 100 100 178 178 178 140 140 140 140 140 3 3 15 15
 15 15 89 89 89 1 1 161 161 161 200 200 200 200 100 100 178 178 178 178
 140 140 140 140 140 131 131 15 15 15 15 15 89 86 86 1 161 161 161 161
 200 200 100 100 100 178 178 178 178 178 140 140 140 131 131 131 15 15 15 15
 15 15 86 86 86 86 161 161 161 200 59 59 59 59 178 178 178 178 178 109
 109 109 145 145 145 15 15 15 15 15 146 86 86 86 86 161 161 161 161 59
 59 163 163 163 163 110 110 109 109 109 109 145 145 145 15 146 146 146 146 146
 86 86 86 86 86 86 86 94 94 59 163 163 163 163 110 110 109 109 109 109
 145 145 145 145 146 146 146 146 146 175 86 86 86 86 86 94 94 94 94 163
 163 163 163 110 110 109 109 109 109 145 145 145 145 146 146 146 146 146 175 175
 175 175 158 158 94 94 94 94 94 163 163 110 110 110 109 109 109 173 145 145
 145 145 127 146 146 146 175 175 175 175 158 158 158 158 94 94 94 94 197 197
 110 110 110 173 173 173 173 173 152 152 152 127 127 127 146 175 175 175 175 158
 158 158 158 94 94 94 197 197 197 197 197 197 173 173 173 173 173 152 152 152
 152 127 127 175 175 175 66 66 66 158 158 158 158 94 197 197 247 197 197 197
 197 173 173 173 173 152 152 152 152 152 152 127 175 175 66 66 66 66 66 158
 158 82 82 82 247 247 197 197 197 197 173 173 173 152 152 152 152 152 152 152
 152 105 105 66 66 66 66 66 66 207 82 82 82 82 82 197 197 197 212 212
 212 212 152 152 152 152 152 152 152 105 105 105 105 105 66 66 66 66 207 82
 82 82 82 82 82 197 212 212 212 212 212 212 152 152 152 152 152 152 105 105
 105 105 105 105 105 76 76 76 82 82 82 82 82 82 197 212 212 212 212 212
 50 50 50 50 50 50 50 105 105 105 105 105 105 105 76 76 76 17 17 82
 82 82 82 183 212 212 212 212 212 50 50 50 50 50 50 50 105 105 105 105
 105 105 76 76 76 76 17 17 17 82 183 183 183 212 212 212 212 212 50 50
 50 50 50 50 50 105 105 8 8 8 8 76 76 76 76 17 17 171 171 153
 183 183 183 212 212 212 206 50 50 50 50 50 50 194 36 8 8 8 8 8
 193 76 76 76 76 171 171 171 153 153 153 153 212 212 206 206 206 50 50 50
 50 36 194 36 8 8 8 8 193 193 193 76 76 171 171 171 171 153 153 153
 153 170 170 206 206 206 206 50 50 50 194 194 194 36 8 8 8 193 193 193
 193 171 171 171 171 171 153 153 153 153 170 170 170 206 206 206 206 36 36 194
 194 194 194 93 93 93 93 193 193 193 171 171 171 171 171 153 153 153 170 170
 170 170 206 206 206 206 36 36 194 194 194 36 93 93 93 93 93 93 209 209
 209 171 171 171 153 153 153 170 170 170 179 179 179 179 179 36 36 159 159 159
 159 93 93 93 93 93 93 209 209 209 28 28 28 28 31 31 31 43 43 179
 179 179 179 179 159 159 159 159 159 159 159 93 93 93 93 93 241 241 241 28
 28 28 31 31 31 31 43 43 43 179 179 179 179 159 159 159 159 159 159 24
 24 93 93 93 42 241 241 241 28 28 28 31 31 31 31 43 43 43 179 169
 169 169 159 159 187 187 187 187 187 24 42 42 42 42 42 241 241 241 100 100
 31 31 31 31 43 43 43 169 169 169 169 187 187 187 187 187 187 187 187 42
 42 42 42 42 42 200 200 100 100 100 31 31 43 43 43 140 140 140 140 3
 187 187 187 187 187 187 187 187 42 42 42 42 42 42 200 200 200 100 100 100
 31 43 43 140 140 140 140 140 3 187 187 15 15 15 15 89 5 1 42 42
 42 42 200 200 200 200 100 100 100 100 43 43 140 140 140 140 140 84 3 15
 15 15 15 15 89 89 41 161 161 161 161 200 200 200 100 100 100 100 178 178
 140 140 140 140 140 140 84 84 15 15 15 15 15 15 86 161 161 161 161 161
 161 200 200 100 100 100 100 178 178 178 140 140 140 84 84 84 84 15 15 15
 15 15 15 86 86 86 161 161 161 161 200 200 100 100 163 163 110 110 110 110
 109 109 109 84 84 84 15 15 15 15 15 146 86 86 86 161 161 161 161 161
 163 163 163 163 163 110 110 110 138 109 109 109 84 84 84 15 15 146 146 146
 146 146 86 86 86 86 161 161 94 94 163 163 163 163 163 110 110 138 109 109
 109 84 84 145 15 146 146 146 146 146 146 175 86 86 86 86 94 94 94 94
 163 163 163 110 110 110 138 109 109 109 145 145 145 145 146 146 146 146 146 175
 175 175 175 158 158 94 94 94 94 94 163 163 110 110 110 138 109 109 109 145
 145 145 152 146 146 146 146 146 175 175 175 175 158 158 94 94 94 94 94 197
 197 197 110 110 138 173 173 173 173 152 152 152 146 146 146 146 175 175 175 175
 66 158 158 94 94 94 94 94 197 197 197 197 197 173 173 97 97 152 152 152
 152 152 146 146 146 175 175 175 66 66 66 158 158 94 94 94 197 197 197 197
 197 197 173 173 97 97 152 152 152 152 152 152 146 146 175 66 66 66 66 66
 66 66 82 82 82 197 197 197 197 197 197 212 173 97 152 152 152 152 152 152
 152 105 105 105 105 66 66 66 66 66 66 82 82 82 82 197 197 197 197 212
 212 212 212 152 152 152 152 152 152 152 105 105 105 105 105 105 66 66 76 76
 82 82 82 82 82 197 197 212 212 212 212 212 212 152 152 152 152 152 105 105
 105 105 105 105 105 105 76 76 76 17 82 82 82 82 82 197 212 212 212 212
 212 212 50 50 50 50 50 105 105 105 105 105 105 105 105 76 76 76 17 17
 82 82 82 82 212 212 212 212 212 212 50 50 50 50 50 50 105 105 105 105
 105 105 105 76 76 76 17 17 17 17 82 82 183 183 212 212 212 212 212 50
 50 50 50 50 50 105 105 8 8 8 8 8 76 76 76 76 17 17 76 171
 153 153 153 212 212 212 212 212 50 50 50 50 50 194 194 8 8 8 8 8
 8 193 76 76 76 76 76 171 171 153 153 153 153 212 212 206 206 206 98 50
 50 50 194 194 194 8 8 8 8 193 193 193 76 76 76 171 171 171 153 153
 153 153 170 170 206 206 206 98 98 98 50 194 194 194 65 65 8 8 193 193
 193 193 76 171 171 171 171 153 153 153 153 170 170 170 206 206 206 98 98 194
 194 194 194 194 65 93 93 193 193 193 209 209 209 171 171 171 153 153 153 170
 170 170 243 206 206 206 98 194 194 194 194 194 194 24 93 93 93 93 93 209
 209 209 16 16 16 153 153 153 243 243 243 243 179 179 179 179 194 194 159 159
 159 24 24 93 93 93 93 93 209 209 209 16 16 16 147 31 31 31 43 43
 179 179 179 179 179 159 159 159 159 159 159 24 24 93 93 93 93 209 209 209
 16 16 16 147 31 31 31 43 43 43 179 179 179 179 159 159 159 159 159 159
 24 24 24 93 42 42 42 209 209 209 16 100 147 31 31 31 43 43 43 179
 179 179 169 159 159 187 187 187 187 24 24 24 42 42 42 42 42 42 209 100
 100 100 31 31 43 43 43 43 43 169 169 187 187 187 187 187 187 187 187 24
 42 42 42 42 42 42 200 200 100 100 100 100 31 43 43 43 43 140 140 140
 187 187 187 187 187 187 187 187 5 5 42 42 42 42 42 200 200 200 100 100
 100 100 43 43 140 140 140 140 140 84 187 187 15 15 15 15 187 5 5 5
 42 42 42 200 200 200 200 100 100 100 100 128 43 140 140 140 140 84 84 84
 15 15 15 15 15 15 41 41 41 161 161 161 200 200 200 100 100 100 100 100
 128 140 140 140 140 84 84 84 84 15 15 15 15 15 15 41 41 41 161 161
 161 161 200 200 100 100 100 100 110 110 110 140 140 84 84 84 84 84 15 15
 15 15 15 15 41 41 41 161 161 161 161 200 200 100 100 163 163 110 110 110
 110 109 84 84 84 84 84 15 15 15 15 15 146 146 41 41 41 161 161 161
 94 163 163 163 163 163 110 110 138 138 138 138 84 84 84 84 84 15 146 146
 146 146 146 146 86 86 161 161 94 94 94 163 163 163 163 110 110 138 138 138
 138 84 84 84 84 84 22 146 146 146 146 146 146 86 86 86 94 94 94 94
 94 163 163 163 110 110 138 138 138 138 109 84 84 84 22 146 146 146 146 146
 146 175 175 175 111 111 94 94 94 94 94 163 163 110 110 138 138 138 97 97
 97 97 228 22 146 146 146 146 146 146 175 175 175 158 158 94 94 94 94 94
 94 197 110 110 138 97 97 97 97 97 97 228 228 146 146 146 146 146 175 175
 175 66 158 158 94 94 94 94 94 197 197 197 197 197 97 97 97 97 97 152
 152 152 152 146 146 146 146 175 175 66 66 66 227 227 94 227 94 197 197 197
 197 197 197 97 97 97 97 97 152 152 152 152 152 146 146 146 175 66 66 66
 66 66 227 227 227 227 197 197 197 247 247 247 97 97 97 97 97 152 152 152
 152 152 105 105 105 105 105 66 66 66 66 227 227 227 82 197 197 197 247 197
 197 212 97 97 97 152 152 152 152 152 105 105 105 105 105 105 105 66 66 76
 76 17 82 82 82 197 197 197 197 212 212 212 212 87 152 152 152 152 152 105
 105 105 105 105 105 105 105 76 76 76 17 82 82 82 82 82 197 212 212 212
 212 212 87 87 50 50 50 50 105 105 105 105 105 105 105 105 76 76 76 17
 17 82 82 82 82 212 212 212 212 212 212 87 50 50 50 50 50 105 105 105
 105 105 105 105 76 76 76 76 17 17 17 17 82 183 183 212 212 212 212 212
 98 50 50 50 50 50 8 8 8 8 8 8 8 76 76 76 76 17 17 76
 76 153 153 153 62 62 62 62 98 98 98 98 98 50 194 194 8 8 8 8
 8 8 193 76 76 76 76 76 76 76 153 153 153 62 62 62 62 98 98 98
 98 98 98 194 194 65 65 8 8 8 193 193 193 76 76 76 76 171 171 153
 153 153 243 243 243 243 98 98 98 98 98 98 194 194 65 65 65 65 8 193
 193 193 193 209 209 171 171 171 153 153 153 243 243 243 243 243 98 98 98 98
 98 194 194 194 65 65 24 93 193 193 193 209 209 209 16 16 16 16 153 243
 243 243 243 243 243 98 98 98 98 194 194 194 194 24 24 24 93 93 93 209
 209 209 209 16 16 16 16 147 243 243 243 243 243 243 243 98 98 98 194 159
 159 24 24 24 24 93 93 93 209 209 209 209 16 16 16 147 147 147 243 243
 243 243 243 179 179 179 159 159 159 159 159 24 24 24 24 93 93 209 209 209
 209 16 16 16 147 147 147 128 43 43 43 179 179 179 108 159 159 159 159 159
 24 24 24 24 24 42 42 209 209 209 16 16 16 147 147 128 128 43 43 43
 108 108 108 108 159 159 187 187 187 187 24 24 24 42 42 42 42 42 209 16
 16 100 147 128 128 128 128 128 43 108 108 108 187 187 187 187 187 187 187 24
 24 5 42 42 42 42 42 200 200 200 100 100 128 128 128 128 128 128 108 108
 84 187 187 187 187 187 187 187 187 5 5 5 42 42 42 42 200 200 200 100
 100 100 128 128 128 128 140 140 84 84 84 187 187 15 15 15 15 15 5 5
 5 5 42 42 200 200 200 200 100 100 100 128 128 128 128 140 84 84 84 84
 84 15 15 15 15 15 15 41 41 41 41 161 161 200 200 200 200 100 100 100
 100 128 128 140 140 84 84 84 84 84 15 15 15 15 15 15 41 41 41 41
 161 161 161 200 200 100 100 100 100 110 110 138 138 84 84 84 84 84 84 84
 15 15 15 15 15 41 41 41 41 161 161 161 200 200 100 100 163 163 110 110
 138 138 138 84 84 84 84 84 84 15 15 15 15 146 41 41 41 41 41 41
 41 210 94 163 163 163 163 110 138 138 138 138 138 84 84 84 84 84 22 22
 146 146 146 146 41 111 111 41 41 210 94 94 94 163 163 163 110 138 138 138
 138 138 84 84 84 84 22 22 22 146 146 146 146 111 111 111 111 111 94 94
 94 94 94 163 163 110 138 138 138 138 138 138 84 84 22 22 22 22 146 146
 146 146 111 111 111 111 111 94 94 94 94 94 163 163 110 138 138 138 138 97
 97 97 228 228 22 22 22 146 146 146 146 111 111 111 111 111 94 94 94 94
 94 94 63 63 138 138 97 97 97 97 97 228 228 228 228 22 146 146 146 146
 111 111 111 111 227 227 227 94 94 94 63 63 63 63 97 97 97 97 97 97
 228 228 228 228 22 146 146 146 175 175 111 111 66 227 227 227 227 227 63 63
 63 63 63 115 115 97 97 97 97 228 228 228 228 22 223 223 223 175 172 172
 172 172 227 227 227 227 227 63 63 63 63 63 115 115 115 97 97 97 228 228
 228 152 223 223 223 223 105 172 172 172 172 227 227 227 227 227 63 63 63 63
 63 63 115 115 97 97 97 152 152 152 223 223 223 223 223 105 172 172 172 172
 227 227 227 227 227 63 63 63 63 63 63 212 115 87 87 87 87 87 152 223
 223 223 223 105 105 105 172 172 172 76 76 17 227 82 82 82 63 63 63 212
 212 212 87 87 87 87 87 87 50 105 105 105 105 105 105 105 172 76 76 76
 17 17 82 82 82 63 62 62 62 62 62 87 87 87 87 87 87 50 105 105
 105 105 105 105 105 105 76 76 76 17 17 17 17 188 62 62 62 62 62 62
 62 87 87 87 87 87 8 8 8 8 8 8 8 8 76 76 76 76 76 76
 76 76 188 62 62 62 62 62 62 62 98 98 98 98 98 65 65 65 65 8
 8 8 8 193 76 76 76 76 76 76 76 153 62 62 62 62 62 62 98 98