# vtk DataFile Version 2.0
Data set from ImportExport Version 6.5.171.b0b162591
ASCII

DATASET RECTILINEAR_GRID
DIMENSIONS 30 30 30
X_COORDINATES 30 float
-1.250000 1.250000 3.750000 6.250000 8.750000 11.250000 13.750000 16.250000 18.750000 21.250000 23.750000 26.250000 28.750000 31.250000 33.750000 36.250000 38.750000 41.250000 43.750000 46.250000 48.750000 
51.250000 53.750000 56.250000 58.750000 61.250000 63.750000 66.250000 68.750000 71.250000 
Y_COORDINATES 30 float
-1.250000 1.250000 3.750000 6.250000 8.750000 11.250000 13.750000 16.250000 18.750000 21.250000 23.750000 26.250000 28.750000 31.250000 33.750000 36.250000 38.750000 41.250000 43.750000 46.250000 48.750000 
51.250000 53.750000 56.250000 58.750000 61.250000 63.750000 66.250000 68.750000 71.250000 
Z_COORDINATES 30 float
-1.250000 1.250000 3.750000 6.250000 8.750000 11.250000 13.750000 16.250000 18.750000 21.250000 23.750000 26.250000 28.750000 31.250000 33.750000 36.250000 38.750000 41.250000 43.750000 46.250000 48.750000 
51.250000 53.750000 56.250000 58.750000 61.250000 63.750000 66.250000 68.750000 71.250000 
CELL_DATA 24389
SCALARS FeatureIds int 1
LOOKUP_TABLE default
 139 139 139 139 139 139 244 69 69 69 205 205 205 205 219 219 219 113 113 113
 113 113 187 187 187 187 187 187 93 139 139 139 139 139 139 244 244 244 69 205
 205 205 205 219 219 219 113 113 113 113 113 187 187 187 187 187 187 93 139 139
 139 139 139 139 244 244 244 244 205 205 205 205 219 219 100 100 113 113 113 113
 187 187 187 187 187 40 40 139 139 139 139 139 139 244 244 244 244 205 205 205
 205 219 100 100 100 100 113 113 65 65 187 187 40 40 40 40 196 196 139 139
 139 139 244 244 244 244 188 205 205 205 100 100 100 100 100 100 113 65 65 187
 40 40 40 40 40 196 196 196 139 139 192 192 192 192 192 188 188 188 188 188
 240 240 240 240 240 147 147 147 147 40 40 40 40 196 196 196 196 196 192 192
 192 192 192 192 188 188 188 188 188 240 240 240 240 240 147 147 147 147 40 40
 196 196 196 196 196 196 196 192 192 192 192 192 192 188 188 188 188 188 240 240
 240 240 240 147 147 147 147 196 196 196 196 196 196 196 73 73 192 192 192 192
 192 188 188 188 188 188 188 240 240 240 240 231 231 147 147 211 196 196 196 196
 196 196 73 73 73 238 238 238 238 238 188 188 188 188 188 188 240 240 240 231
 231 231 211 211 211 196 196 196 196 196 196 73 73 73 238 238 238 238 238 238
 188 188 188 188 188 240 6 6 231 231 231 211 211 211 196 196 196 196 196 196
 73 73 73 238 238 238 238 238 238 188 188 188 188 188 6 6 6 109 109 109
 211 211 211 196 196 196 196 196 196 128 128 128 238 238 238 238 238 238 188 188
 188 105 105 6 6 6 109 109 109 211 140 140 140 196 196 196 196 45 128 128
 128 128 245 238 238 238 189 189 189 105 105 55 55 6 6 140 140 140 140 140
 140 140 140 141 141 141 45 128 128 128 128 245 246 246 189 189 189 189 95 95
 55 55 55 55 140 140 140 140 140 140 140 140 141 141 141 45 45 128 128 128
 128 246 246 189 189 189 189 95 95 95 55 55 55 140 140 140 140 140 140 140
 140 141 141 141 45 45 128 128 128 128 246 246 189 189 189 95 95 95 95 95
 95 95 140 140 140 140 140 140 140 140 138 138 138 138 45 128 128 128 128 64
 64 189 189 95 95 95 95 95 95 95 95 140 140 140 140 140 140 140 138 138
 138 138 138 138 128 128 128 64 64 64 64 64 95 95 95 95 95 95 95 95
 95 140 140 151 151 151 151 138 138 138 138 138 138 128 128 64 64 64 64 64
 64 95 95 95 95 95 95 95 207 207 207 151 151 151 151 151 138 138 138 138
 138 138 16 16 64 64 64 64 64 229 229 193 193 95 95 95 207 207 207 207
 151 151 151 151 151 138 138 138 138 16 16 16 16 16 64 64 64 229 229 229
 193 193 95 95 207 207 207 207 207 207 151 151 151 151 138 138 138 138 16 16
 16 16 16 229 229 229 229 229 229 229 193 193 95 207 207 207 207 207 14 152
 152 152 152 138 138 138 16 16 16 16 16 16 229 229 229 229 229 229 229 229
 229 229 209 207 207 207 14 14 152 152 152 152 152 27 27 16 16 16 16 16
 16 229 229 229 229 229 229 229 229 209 209 209 209 14 14 14 14 152 152 152
 152 152 27 27 27 27 16 16 16 16 229 229 229 229 229 229 229 229 209 209
 209 209 209 14 14 14 152 152 152 152 152 27 27 27 27 16 16 16 139 69
 69 69 69 226 226 69 69 209 209 209 209 209 14 14 14 152 152 152 152 152
 27 27 27 27 27 139 139 139 139 69 69 226 226 226 226 205 209 209 209 209
 209 113 113 113 152 152 152 152 152 27 27 27 27 139 139 139 139 139 69 69
 69 226 226 205 205 209 209 209 209 209 113 113 113 113 187 187 187 187 27 27
 27 93 93 139 139 139 139 244 244 244 226 205 205 205 205 219 219 219 113 113
 113 113 113 187 187 187 187 187 93 93 93 93 139 139 139 139 244 244 244 244
 205 205 205 205 219 219 219 113 113 113 113 113 187 187 187 187 187 93 93 93
 93 139 139 139 139 244 244 244 244 205 205 205 205 219 219 100 100 113 113 113
 113 187 187 187 187 187 40 93 93 93 139 139 139 139 244 244 244 244 205 205
 205 205 219 100 100 100 100 113 113 113 187 187 187 40 40 40 40 196 196 139
 139 139 139 244 244 244 244 205 205 205 205 219 100 100 100 100 100 113 147 147
 40 40 40 40 40 40 196 196 196 196 139 192 192 192 192 192 188 188 188 188
 240 240 240 240 240 240 147 147 147 40 40 40 40 40 196 196 196 196 196 192
 192 192 192 192 192 188 188 188 188 188 240 240 240 240 240 147 147 147 147 40
 40 40 196 196 196 196 196 196 192 192 192 192 192 192 188 188 188 188 188 240
 240 240 240 240 147 147 147 147 196 196 196 196 196 196 196 196 196 192 192 192
 192 192 188 188 188 188 188 188 240 240 240 240 231 231 147 147 147 196 196 196
 196 196 196 196 196 196 238 238 238 238 238 188 188 188 188 188 188 240 240 240
 231 231 231 147 147 147 196 196 196 196 196 196 196 73 73 238 238 238 238 238
 238 188 188 188 188 188 6 6 6 231 231 231 231 211 211 196 196 196 196 196
 196 196 245 245 245 238 238 238 238 238 188 188 188 188 105 6 6 6 109 109
 109 109 109 109 196 196 196 196 196 196 45 245 245 245 245 238 238 238 238 188
 188 188 105 105 105 6 6 109 109 109 109 140 140 140 196 196 141 196 45 45
 45 245 245 245 245 238 238 189 189 189 105 105 105 105 105 6 109 140 140 140
 140 140 140 140 141 141 141 45 45 45 45 245 245 246 246 189 189 189 189 95
 95 105 105 105 105 140 140 140 140 140 140 140 140 141 141 141 45 45 45 45
 245 246 246 246 189 189 189 189 95 95 95 95 95 105 140 140 140 140 140 140
 140 141 141 141 141 45 45 45 45 45 246 246 246 189 189 189 95 95 95 95
 95 95 95 140 140 140 140 140 140 140 140 141 141 141 45 45 45 45 45 64
 64 64 64 189 95 95 95 95 95 95 95 95 140 140 140 140 140 140 140 138
 138 138 138 138 138 45 45 64 64 64 64 64 64 95 95 95 95 95 95 95
 95 140 140 140 140 151 151 138 138 138 138 138 138 138 163 163 64 64 64 64
 64 64 95 95 95 95 95 95 95 95 207 207 151 151 151 151 138 138 138 138
 138 138 163 163 163 163 64 64 64 64 229 229 95 95 95 95 95 207 207 207
 207 151 151 151 151 138 138 138 138 138 16 16 163 163 163 64 64 64 229 229
 229 229 229 95 95 95 207 207 207 207 14 152 151 32 138 138 138 138 138 16
 16 16 16 16 229 229 229 229 229 229 229 229 229 95 209 207 207 207 14 14
 152 152 152 152 138 138 138 16 16 16 16 16 16 229 229 229 229 229 229 229
 229 229 209 209 209 14 14 14 14 152 152 152 152 152 27 27 16 16 16 16
 16 16 229 229 229 229 229 229 229 229 229 209 209 209 14 14 14 14 152 152
 152 152 152 27 27 27 27 16 16 16 16 229 229 229 229 229 229 229 229 209
 209 209 209 14 14 14 14 152 152 152 152 152 27 27 27 27 16 16 16 16
 226 226 226 226 226 226 226 226 209 209 209 209 209 14 14 14 152 152 152 152
 152 27 27 27 27 93 139 139 139 244 226 226 226 226 226 226 205 209 209 209
 209 209 14 14 14 152 152 152 152 152 27 27 27 93 93 139 139 139 244 244
 226 226 226 226 205 205 205 209 209 209 209 113 113 113 113 187 187 187 187 27
 27 27 93 93 93 139 139 244 244 244 244 244 205 205 205 205 219 219 219 113
 113 113 113 113 187 187 187 187 187 93 93 93 93 93 139 139 244 244 244 244
 244 205 205 205 205 219 219 219 113 113 113 113 113 187 187 187 187 187 93 93
 93 93 93 139 139 244 244 244 244 244 205 205 205 205 219 219 100 100 113 113
 113 113 187 187 187 187 187 93 93 93 93 93 139 139 244 244 244 244 244 205
 205 205 205 219 100 100 100 100 113 113 113 187 187 187 40 40 40 40 196 93
 93 139 139 244 244 244 244 244 205 205 205 205 100 100 100 100 100 100 113 147
 187 187 40 40 40 40 40 196 196 196 139 192 192 192 192 192 192 188 188 188
 188 240 240 240 240 240 240 147 147 147 40 40 40 40 40 196 196 196 196 196
 192 192 192 192 192 192 188 188 188 188 240 240 240 240 240 240 147 147 147 147
 40 40 40 196 196 196 196 196 196 192 192 192 192 192 192 188 188 188 188 188
 240 240 240 240 231 147 147 147 147 196 196 196 196 196 196 196 196 196 192 192
 192 192 192 188 188 188 188 188 188 240 240 240 231 231 147 147 147 147 196 196
 196 196 196 196 196 196 238 238 238 192 192 192 188 188 188 188 188 188 240 240
 240 231 231 231 147 147 147 196 196 196 196 196 196 196 245 245 238 238 238 238
 238 238 188 188 188 188 188 240 6 6 231 231 231 43 147 147 48 196 196 196
 196 196 245 245 245 245 245 238 238 238 238 188 188 188 105 105 105 6 6 109
 109 109 109 109 48 48 48 48 196 196 45 45 245 245 245 245 245 238 238 238
 188 188 188 105 105 105 105 6 109 109 109 109 140 140 48 48 48 141 141 45
 45 45 245 245 245 245 245 238 189 189 189 105 105 105 105 105 105 109 140 140
 140 140 140 140 141 141 141 141 45 45 45 45 245 245 245 246 189 189 189 189
 95 105 105 105 105 105 140 140 140 140 140 140 140 141 141 141 141 45 45 45
 45 245 245 246 246 189 189 189 189 95 95 95 105 105 105 140 140 140 140 140
 140 140 141 141 141 141 45 45 45 45 45 246 246 246 189 189 189 95 95 95
 95 95 95 105 140 140 140 140 140 140 140 141 141 141 141 45 45 45 45 45
 64 64 64 189 189 95 95 95 95 95 95 95 95 140 140 140 140 140 140 140
 138 138 138 138 138 123 45 45 64 64 64 64 64 64 95 95 95 95 95 95
 95 95 95 140 140 140 140 140 138 138 138 138 138 138 163 163 163 64 64 64
 64 64 64 95 95 95 95 95 95 95 95 66 107 107 107 32 32 138 138 138
 138 138 163 163 163 163 163 64 64 64 64 229 229 95 95 95 95 95 95 207
 207 14 107 107 32 32 138 138 138 138 138 163 163 163 163 163 64 64 64 229
 229 229 229 229 95 95 95 207 207 14 14 14 32 32 32 32 138 138 138 138
 16 16 16 16 216 216 216 229 229 229 229 229 229 229 95 209 14 14 14 14
 14 14 152 32 152 138 138 138 16 16 16 16 16 216 216 216 229 229 229 229
 229 229 229 209 209 14 14 14 14 14 14 152 152 152 27 27 27 16 16 16
 16 16 216 216 216 229 229 229 229 229 229 209 209 209 14 14 14 14 14 14
 152 152 152 27 27 27 27 27 16 16 16 16 216 216 216 229 229 229 229 229
 209 209 209 209 14 14 14 14 14 152 152 152 27 27 27 27 27 16 93 16
 16 216 216 226 226 226 226 226 226 209 209 209 209 14 14 14 14 152 152 152
 152 152 27 27 27 93 93 93 93 93 244 226 226 226 226 226 205 205 209 209
 209 209 209 14 14 111 111 152 152 152 152 27 27 27 93 93 93 93 93 244
 244 244 226 226 226 205 205 205 209 209 209 209 113 113 113 113 187 187 187 187
 27 27 93 93 93 93 93 93 244 244 244 244 244 205 205 205 205 205 219 209
 113 113 113 113 113 187 187 187 187 187 93 93 93 93 93 93 93 244 244 244
 244 244 205 205 205 205 205 219 219 113 113 113 113 113 187 187 187 187 24 24
 93 93 93 93 93 93 244 244 244 244 244 205 205 205 205 205 219 100 100 113
 113 113 113 187 187 187 187 24 24 93 93 93 93 93 93 244 244 244 244 244
 205 205 205 205 205 100 100 100 100 113 113 113 187 187 187 40 24 24 24 93
 93 93 93 93 244 244 244 244 244 205 205 205 205 205 100 100 100 100 100 113
 113 187 187 40 40 40 40 40 196 196 196 93 192 192 192 192 192 192 188 188
 188 188 240 240 240 240 240 240 147 147 147 40 40 40 40 40 196 196 196 196
 196 192 192 192 192 192 192 188 188 188 188 240 240 240 240 240 240 147 147 147
 147 40 40 196 196 196 196 196 196 196 192 192 192 192 192 188 188 188 188 188
 188 240 240 240 43 43 43 147 147 147 196 196 196 196 196 196 196 196 192 192
 192 192 192 192 188 188 188 188 188 188 240 240 240 43 43 43 43 147 147 196
 196 196 196 196 196 196 183 245 192 192 192 192 192 188 188 188 188 188 188 240
 240 43 43 43 43 43 43 43 48 48 196 196 196 196 196 245 245 245 245 238
 238 238 188 188 188 188 188 179 179 179 43 43 43 43 43 43 48 48 48 48
 196 196 196 245 245 245 245 245 245 238 238 238 188 188 188 105 105 105 105 6
 43 43 43 43 43 48 48 48 48 48 48 45 45 245 245 245 245 245 245 238
 238 238 242 242 105 105 105 105 105 109 109 109 43 43 48 48 48 48 48 141
 45 45 45 245 245 245 245 245 245 189 189 242 242 242 105 105 105 105 105 140
 140 140 140 76 76 141 141 141 141 45 45 45 245 245 245 245 245 189 189 189
 242 242 242 105 105 105 105 105 140 140 140 140 76 76 141 141 141 141 45 45
 45 45 245 245 245 21 189 189 189 95 95 95 105 105 105 105 140 140 140 140
 140 76 76 141 141 141 141 45 45 45 45 45 245 21 21 21 189 189 95 95
 95 95 95 95 105 140 140 140 140 140 76 76 141 141 141 141 123 123 45 45
 45 245 21 21 21 189 95 95 95 95 95 95 95 95 66 140 140 140 140 76
 76 138 138 141 123 123 123 123 123 123 194 194 194 194 194 95 95 95 95 95
 95 95 66 66 66 107 107 107 32 32 138 138 138 138 123 123 123 123 123 194
 194 194 194 194 95 95 95 95 95 95 95 66 66 107 107 107 32 32 32 138
 138 138 138 163 163 163 163 163 216 194 194 194 229 229 95 95 95 95 95 66
 66 66 66 107 107 32 32 32 138 138 138 138 163 163 163 163 216 216 216 216
 216 229 229 229 229 95 95 95 66 66 14 14 32 32 32 32 32 32 138 138
 163 163 163 163 163 216 216 216 216 216 229 229 229 229 229 95 14 14 14 14
 14 14 32 32 32 32 32 138 138 163 16 16 16 16 216 216 216 216 216 229
 229 229 229 229 209 14 14 14 14 14 14 14 32 32 32 27 27 27 16 16
 16 16 16 216 216 216 216 216 229 229 229 229 209 209 14 14 14 14 14 14
 14 152 152 152 27 27 27 27 27 16 16 16 216 216 216 216 216 229 229 229
 229 209 209 209 14 14 14 14 14 14 152 152 152 27 27 27 27 93 93 93
 93 93 216 216 216 216 226 226 226 209 209 209 209 209 14 14 14 14 14 152
 152 152 152 27 27 27 93 93 93 93 93 93 244 244 226 226 226 205 205 205
 209 209 209 14 14 111 111 111 152 152 152 152 27 27 93 93 93 93 93 93
 244 244 244 244 244 205 205 205 205 209 209 209 209 111 111 111 111 187 187 187
 187 27 93 93 93 93 93 93 93 224 224 224 224 224 205 205 205 205 205 241
 241 113 113 111 111 111 187 187 187 154 154 93 93 93 93 93 93 93 224 224
 224 224 224 205 205 205 205 205 219 219 113 113 113 113 113 187 187 187 154 24
 24 93 93 93 93 93 93 224 224 224 224 224 205 205 205 205 205 219 100 100
 113 113 113 113 187 187 187 24 24 24 24 93 93 93 93 93 224 224 224 224
 224 224 205 205 205 205 100 100 100 100 113 113 113 20 187 24 24 24 24 24
 93 93 93 93 93 224 224 224 224 224 224 205 205 205 205 100 100 100 74 74
 74 74 20 20 40 24 24 24 24 196 196 93 93 68 68 68 68 68 47 47
 188 188 188 240 240 240 74 74 74 74 74 20 20 40 40 24 24 24 196 196
 196 183 68 68 68 68 68 47 188 188 188 188 240 240 240 74 74 74 74 74
 147 20 40 40 196 196 196 196 196 183 183 68 68 68 68 68 68 188 188 188
 188 188 240 240 74 74 74 74 74 147 20 196 196 196 196 196 196 183 183 183
 68 68 68 68 68 47 188 188 188 188 188 240 240 43 43 43 43 43 147 94
 48 196 196 196 196 196 183 183 183 183 68 68 68 68 188 188 188 188 188 179
 179 179 43 43 43 43 43 43 48 48 48 48 48 196 196 183 245 245 245 245
 238 238 238 188 188 188 188 179 179 179 179 43 43 43 43 43 43 48 48 48
 48 48 48 245 245 245 245 245 245 245 245 238 238 242 242 242 242 179 179 179
 179 43 43 43 43 48 48 48 48 48 48 48 45 45 245 245 245 245 245 245
 238 238 242 242 242 242 242 105 105 105 43 109 43 43 48 48 48 48 48 48
 48 45 45 245 245 245 245 245 245 21 21 242 242 242 242 242 105 105 105 105
 140 140 76 76 76 76 48 48 141 141 45 45 45 245 245 245 245 21 21 21
 242 242 242 242 242 105 105 105 105 140 140 76 76 76 76 76 141 141 141 123
 45 45 45 245 245 21 21 21 21 242 242 242 242 242 105 105 105 105 140 140
 76 76 76 76 76 141 141 141 123 123 123 123 123 21 21 21 21 21 119 119
 119 119 119 119 105 105 105 140 140 76 76 76 76 76 141 141 141 123 123 123
 123 123 21 21 21 21 21 119 119 119 119 119 119 66 66 66 66 107 107 76
 76 76 76 138 123 123 123 123 123 123 123 194 194 194 194 194 194 119 119 119
 119 119 66 66 66 66 107 107 107 32 32 32 138 123 123 123 123 123 123 123
 194 194 194 194 194 194 119 95 95 95 49 66 66 66 66 107 107 107 32 32
 32 138 138 123 176 176 176 176 216 216 194 194 194 194 194 49 49 49 49 49
 66 66 66 66 107 107 32 32 32 32 138 138 176 163 163 176 176 216 216 216
 216 216 216 216 229 49 49 49 66 66 66 66 66 66 32 32 32 32 32 32
 138 163 163 176 176 176 216 216 216 216 216 216 216 229 229 49 49 66 66 66
 14 14 14 32 32 32 32 32 32 163 163 176 176 176 176 216 216 216 216 216
 216 216 229 229 229 241 14 14 14 14 14 14 32 32 32 32 32 27 27 16
 16 16 16 216 216 216 216 216 216 216 216 229 229 241 241 241 14 14 14 14
 14 14 32 32 32 27 27 27 27 27 16 16 216 216 216 216 216 216 216 216
 216 177 241 241 241 14 14 14 14 14 14 14 152 152 27 27 27 27 93 93
 93 93 216 216 216 216 216 216 216 177 205 241 241 241 241 14 14 14 111 111
 152 152 152 152 27 27 27 93 93 93 93 93 224 224 224 224 224 177 177 205
 241 241 241 241 14 14 111 111 111 111 152 152 152 27 93 93 93 93 93 93
 93 224 224 224 224 224 205 205 205 205 241 241 241 241 111 111 111 111 111 187
 154 154 154 93 93 93 93 93 93 93 224 224 224 224 224 177 177 205 205 241
 241 241 241 111 111 111 111 154 154 154 154 154 154 93 93 93 93 93 93 224
 224 224 224 224 224 205 205 205 205 241 241 241 113 113 113 113 154 154 154 154
 154 24 93 93 93 93 93 93 224 224 224 224 224 224 205 205 205 205 219 100
 100 113 113 113 20 20 154 154 154 24 24 24 24 93 93 93 93 224 224 224
 224 224 224 205 205 205 205 100 100 74 74 74 74 20 20 20 20 24 24 24
 24 24 93 93 93 93 224 224 224 224 224 47 47 47 205 205 74 74 74 74
 74 74 20 20 20 20 24 24 24 24 24 183 183 183 68 68 68 68 47 47
 47 47 47 188 74 74 74 74 74 74 74 20 20 20 20 20 24 24 24 13
 183 183 183 68 68 68 68 68 47 47 47 47 188 162 74 74 74 74 74 74
 74 20 20 20 20 13 13 13 183 183 183 183 183 68 68 68 68 47 47 47
 47 188 162 162 74 74 74 74 74 74 20 20 20 13 13 13 13 183 183 183
 183 183 68 68 68 68 47 47 47 47 162 162 162 74 74 74 74 74 74 94
 94 94 48 13 13 13 183 183 183 183 127 68 68 68 68 47 47 47 188 179
 179 179 179 74 74 74 74 74 210 210 48 48 48 48 13 183 183 183 183 127
 127 120 120 120 120 47 188 179 179 179 179 179 179 43 43 43 43 48 48 48
 48 48 48 48 183 183 245 245 127 127 120 120 120 120 242 242 242 242 179 179
 179 179 43 43 43 43 48 48 48 48 48 48 48 123 245 245 245 245 245 245
 120 120 120 242 242 242 242 242 179 179 179 179 109 43 76 48 48 48 48 48
 48 48 123 123 245 245 245 245 245 21 21 21 242 242 242 242 242 242 105 105
 105 105 76 76 76 76 48 48 48 48 48 123 123 123 245 245 245 21 21 21
 21 242 242 242 242 242 242 105 105 105 140 76 76 76 76 76 76 141 141 141
 123 123 123 123 245 21 21 21 21 21 242 242 119 119 119 119 105 105 105 140
 76 76 76 76 76 76 141 141 123 123 123 123 123 123 21 21 21 21 21 119
 119 119 119 119 119 119 66 66 66 76 76 76 76 76 76 141 123 123 123 123
 123 123 123 21 21 21 21 21 119 119 119 119 119 119 66 66 66 66 107 107
 76 76 76 76 76 123 123 123 123 123 123 123 194 194 194 194 194 119 119 119
 119 119 119 66 66 66 66 107 107 107 32 32 32 123 123 123 123 123 123 123
 123 194 194 194 194 194 194 49 49 49 49 49 66 66 66 66 107 107 107 32
 32 32 32 123 123 176 176 176 85 85 194 194 194 194 194 194 49 49 49 49
 49 66 66 66 66 107 107 32 32 32 32 32 85 176 176 176 176 176 85 216
 216 216 216 216 216 216 49 49 49 66 66 66 66 66 66 32 32 32 32 32
 32 85 176 176 176 176 85 216 216 216 216 216 216 216 216 49 49 49 66 66
 66 66 66 243 32 32 32 32 32 32 85 85 85 176 85 85 216 216 216 216
 216 216 216 216 177 49 241 241 14 14 14 14 14 32 32 32 32 32 32 85
 85 85 85 85 85 216 216 216 216 216 216 216 177 177 241 241 241 14 14 14
 14 14 14 32 32 32 32 27 85 85 85 85 85 216 216 216 216 216 216 216
 177 177 177 241 241 241 241 14 14 14 14 14 14 152 32 32 27 27 85 93
 93 93 93 216 216 216 216 216 177 177 177 177 241 241 241 241 14 14 14 14
 111 111 152 152 152 27 27 81 93 93 93 93 93 224 224 224 224 177 177 177
 177 241 241 241 241 241 14 111 111 111 111 152 154 154 154 93 93 93 93 93
 93 93 224 224 224 224 224 177 177 177 241 241 241 241 241 111 111 111 111 111
 154 154 154 154 93 93 93 93 93 93 93 224 224 224 224 224 177 177 177 177
 241 241 241 217 111 111 111 111 154 154 154 154 154 154 93 93 93 93 93 224
 224 224 224 224 224 177 177 177 205 205 241 241 217 113 113 113 154 154 154 154
 154 154 154 93 93 93 93 93 224 224 224 224 224 224 224 177 177 205 205 241
 241 74 74 113 20 20 154 154 154 154 154 24 24 24 93 93 93 224 224 224
 224 224 224 224 177 177 205 205 74 74 74 74 74 20 20 20 20 20 154 24
 24 24 24 93 93 183 224 224 224 224 47 47 47 47 47 47 74 74 74 74
 74 74 74 20 20 20 20 20 24 24 24 13 183 183 183 183 68 68 47 47
 47 47 47 47 47 74 74 74 74 74 74 74 20 20 20 20 20 13 13 13
 13 183 183 183 183 68 68 68 47 47 47 47 47 47 162 74 74 74 74 74
 74 74 20 20 20 20 13 13 13 13 183 183 183 183 68 68 68 47 47 47
 47 47 162 162 162 74 74 74 74 74 74 94 94 94 13 13 13 13 183 183
 183 183 183 68 68 68 47 47 47 47 47 162 162 162 162 74 74 74 74 74
 94 94 94 13 13 13 13 183 183 183 183 127 127 120 120 47 47 47 47 47
 162 162 162 162 74 74 74 74 74 210 210 210 48 48 13 13 183 183 183 183
 127 127 120 120 120 120 47 47 179 179 179 179 179 179 74 74 74 74 210 210
 48 48 48 48 48 183 183 183 127 127 127 120 120 120 120 242 242 242 242 179
 179 179 179 74 74 74 74 210 48 48 48 48 48 48 123 183 183 127 127 127
 127 120 120 120 242 242 242 242 242 179 179 179 179 74 74 76 48 48 48 48
 48 48 48 123 123 123 245 245 127 127 120 120 120 242 242 242 242 242 242 179
 179 179 232 76 76 76 76 48 48 48 48 48 123 123 123 123 245 21 21 21
 21 21 242 242 242 242 242 242 105 105 232 232 76 76 76 76 76 76 48 141
 123 123 123 123 123 123 21 21 21 21 21 242 119 119 119 119 119 119 232 232
 232 76 76 76 76 76 76 141 123 123 123 123 123 123 123 21 21 21 21 21
 119 119 119 119 119 119 119 66 66 5 5 76 76 76 76 76 76 123 123 123
 123 123 123 123 21 21 21 21 21 119 119 119 119 119 119 66 66 66 66 66
 5 76 76 76 76 123 123 123 123 123 123 123 123 194 194 194 194 194 119 119
 119 119 49 119 66 66 66 66 66 107 107 32 32 32 123 123 123 85 85 85
 85 85 194 194 194 194 194 194 49 49 49 49 49 66 66 66 66 66 107 107
 32 32 32 32 85 85 85 85 85 85 85 216 194 194 194 194 194 49 49 49
 49 49 66 66 66 66 66 243 32 32 32 32 32 85 85 85 85 85 85 85
 216 216 216 216 216 216 49 49 49 49 49 66 66 66 66 243 171 32 32 32
 32 85 85 85 85 85 85 85 85 216 216 216 216 216 216 216 49 49 49 66
 66 66 66 66 243 243 32 32 32 32 85 85 85 85 85 85 85 216 216 216
 216 216 216 216 216 177 174 174 66 66 23 23 23 134 134 134 32 32 32 85
 85 85 85 85 85 85 216 216 216 216 216 216 216 177 177 177 174 241 23 23
 23 23 23 134 134 32 32 32 85 85 85 81 81 81 81 216 216 216 216 216
 216 177 177 177 177 241 241 241 23 23 23 23 23 134 32 32 32 85 85 81
 81 81 81 81 81 216 216 216 216 177 177 177 177 177 241 241 241 23 23 23
 23 23 23 152 154 154 81 81 81 81 81 81 81 81 224 224 224 177 177 177
 177 177 177 241 241 241 217 23 23 23 23 23 154 154 154 154 81 81 81 81
 93 93 93 224 224 224 224 177 177 177 177 177 241 241 241 217 217 111 111 111
 111 154 154 154 154 81 81 81 81 81 81 81 224 224 224 224 177 177 177 177
 177 177 217 217 217 217 217 111 154 154 154 154 154 154 154 81 81 81 81 81
 224 224 224 224 224 224 177 177 177 177 177 217 217 217 217 131 131 154 154 154
 154 154 154 154 81 81 93 93 93 224 224 224 224 224 224 177 177 177 177 177
 217 217 131 131 131 131 20 154 154 154 154 154 154 24 24 93 93 93 224 224
 224 224 224 224 47 47 177 177 177 131 131 131 131 131 131 20 20 20 20 154
 154 24 24 24 183 183 183 183 224 224 47 47 47 47 47 47 47 47 131 131
 131 131 131 131 20 20 20 20 20 24 24 24 13 183 183 183 183 47 47 47
 47 47 47 47 47 47 47 74 74 74 74 74 131 20 20 20 20 20 13 13
 13 13 183 183 183 183 68 47 47 47 47 47 47 47 47 162 74 74 74 74
 74 74 20 20 20 20 20 13 13 13 183 183 183 183 183 68 47 47 47 47
 47 47 47 162 162 162 74 74 74 136 136 74 94 94 94 13 13 13 13 183
 183 183 183 183 183 47 47 47 47 47 47 47 162 162 162 162 74 74 74 74
 94 94 94 94 13 13 13 13 183 183 183 183 183 127 120 120 47 47 47 47
 47 162 162 162 162 162 74 74 74 94 210 210 210 153 153 13 13 183 183 183
 183 127 127 120 120 120 120 47 47 47 162 162 162 162 162 74 74 74 94 210
 210 153 153 153 153 13 183 183 183 127 127 127 120 120 120 120 47 242 242 242
 179 179 179 179 74 74 74 210 210 153 153 153 153 153 153 183 183 183 127 127
 127 127 120 120 120 242 242 242 242 242 179 179 179 179 232 232 210 210 153 153
 153 153 153 153 123 123 123 127 127 127 127 120 120 120 242 242 242 242 242 242
 179 179 232 232 232 76 76 76 153 153 153 153 153 123 123 123 123 127 21 21
 21 21 21 242 242 242 242 242 242 232 232 232 232 232 76 76 76 76 76 153
 153 123 123 123 123 123 123 21 21 21 21 21 21 119 119 119 119 119 119 232
 232 232 232 5 76 76 76 76 76 123 123 123 123 123 123 123 21 21 21 21
 21 119 119 119 119 119 119 119 232 232 232 5 5 5 76 76 76 76 123 123
 123 123 123 123 123 21 21 21 21 21 119 119 119 119 119 119 66 66 66 66
 5 5 5 5 76 76 123 123 123 123 123 123 85 85 194 194 194 10 10 49
 49 49 49 49 49 66 66 66 66 66 5 5 5 32 32 123 123 123 85 85
 85 85 85 194 194 194 194 194 49 49 49 49 49 49 66 66 66 66 66 243
 243 32 32 32 85 85 85 85 85 85 85 85 85 194 194 194 194 49 49 49
 49 49 49 66 66 66 66 66 243 243 32 32 32 85 85 85 85 85 85 85
 85 216 216 216 216 216 216 49 49 49 49 49 66 66 66 66 243 171 243 32
 32 32 85 85 85 85 85 85 85 85 216 216 216 216 216 216 49 174 174 174
 66 66 66 66 66 243 243 243 32 32 32 85 85 85 85 85 85 85 85 216
 216 216 216 216 216 174 174 174 174 174 66 23 23 23 134 134 134 32 32 32
 85 85 85 85 85 85 85 85 216 216 216 216 216 177 177 177 174 174 174 23
 23 23 23 23 134 134 32 32 32 85 85 85 81 81 81 81 81 216 216 216
 216 177 177 177 177 177 177 241 217 23 23 23 23 23 134 32 32 32 81 81
 81 81 81 81 81 81 216 216 216 177 177 177 177 177 177 177 241 217 217 23
 23 23 23 23 23 154 81 81 81 81 81 81 81 81 81 81 224 224 177 177
 177 177 177 177 177 241 217 217 217 23 23 23 23 154 154 154 81 81 81 81
 81 81 81 81 224 224 224 224 177 177 177 177 177 177 217 217 217 217 217 23
 23 23 154 154 154 154 81 81 81 81 81 81 81 224 224 224 224 177 177 177
 177 177 177 217 217 217 217 217 217 154 154 154 154 154 154 154 81 81 81 81
 81 81 224 224 224 224 177 177 159 159 159 159 217 217 217 217 217 131 154 154
 154 154 154 154 154 81 81 81 81 81 61 224 224 224 224 224 159 159 159 159
 159 217 131 131 131 131 131 131 154 154 154 154 154 154 81 24 81 81 61 61
 61 224 224 224 47 47 159 159 159 159 131 131 131 131 131 131 131 20 20 20
 154 154 154 24 24 183 183 61 61 61 61 47 47 47 47 47 47 47 131 131
 131 131 131 131 131 131 20 20 20 20 161 24 24 183 183 183 183 183 61 47
 47 47 47 47 47 47 47 131 131 131 131 131 131 131 131 20 20 20 20 13
 13 13 183 183 183 183 183 183 47 47 47 47 47 47 47 47 162 162 131 131
 131 131 131 131 20 20 20 20 13 13 13 183 183 183 183 183 183 47 47 47
 47 47 47 47 162 162 162 162 74 136 136 136 74 94 94 94 13 13 13 13
 183 183 183 183 183 183 47 47 47 47 47 47 47 162 162 162 162 74 74 74
 74 94 94 94 94 13 13 13 13 183 183 183 183 183 127 120 120 47 47 47
 47 47 162 162 162 162 162 74 74 74 94 94 210 210 153 13 13 13 183 183
 183 183 127 127 120 120 120 120 47 47 162 162 162 162 162 162 74 74 74 94
 210 210 153 153 153 153 13 183 183 183 127 127 127 120 120 120 120 47 242 242
 242 114 162 162 162 39 39 39 210 210 153 153 153 153 153 153 183 183 183 127
 127 127 120 120 120 120 120 242 242 242 114 114 114 114 232 232 232 232 153 153
 153 153 153 153 153 195 195 70 70 127 127 120 120 120 120 92 242 242 242 242
 242 114 232 232 232 232 232 44 44 153 153 153 153 153 195 195 195 70 70 127
 21 21 21 21 92 242 242 119 119 119 232 232 232 232 232 232 44 44 44 44
 153 153 123 195 195 195 195 3 3 21 21 21 21 21 119 119 119 119 119 119
 232 232 232 232 5 44 44 44 44 44 123 123 195 195 195 195 195 3 21 21
 21 21 119 119 119 119 119 119 221 232 232 232 5 5 5 44 44 44 44 195
 195 195 195 195 195 195 10 10 10 10 10 119 119 119 119 119 119 221 66 66
 5 5 5 5 5 5 44 44 195 195 195 195 195 85 85 10 10 10 10 10
 10 49 49 49 49 49 66 66 66 66 5 5 5 5 5 5 195 195 195 85
 85 85 85 85 10 10 10 10 10 10 49 49 49 49 49 66 66 66 66 66
 5 5 5 32 32 22 22 85 85 85 85 85 85 10 10 10 10 10 10 49
 49 49 49 49 66 66 66 66 66 243 243 243 32 32 22 22 85 85 85 85
 85 85 85 10 10 10 10 10 49 49 49 49 49 66 66 66 66 243 171 243
 243 32 32 22 22 85 85 85 85 85 85 216 216 216 216 216 216 174 174 174
 174 174 66 66 66 66 243 243 171 243 32 32 22 22 85 85 85 85 85 85
 216 216 216 216 216 216 174 174 174 174 174 174 23 23 23 134 134 134 32 32
 101 101 101 85 81 81 81 81 81 216 216 216 216 216 177 174 174 174 174 174
 174 23 23 23 23 134 134 134 32 101 101 101 85 81 81 81 81 81 216 216
 216 216 177 177 177 177 174 174 174 217 23 23 23 23 23 134 134 32 101 101
 81 81 81 81 81 81 81 81 216 216 177 177 177 177 177 177 177 217 217 217
 217 23 23 23 23 23 154 81 81 81 81 81 81 81 81 81 81 224 177 177
 177 177 177 177 177 177 217 217 217 217 217 23 23 23 154 154 154 81 81 81
 81 81 81 81 81 81 224 224 177 177 177 177 177 177 217 217 217 217 217 217
 23 23 154 154 154 154 154 81 81 81 81 81 81 81 81 224 224 224 177 159
 159 159 159 159 217 217 217 217 217 217 154 154 154 154 154 154 81 81 81 81
 81 81 81 61 61 224 224 159 159 159 159 159 159 217 217 217 217 131 131 131
 154 154 154 154 154 154 81 81 81 81 81 61 61 61 61 61 159 159 159 159
 159 159 191 191 131 131 131 131 131 161 161 161 161 161 161 81 81 81 81 61
 61 61 61 61 61 159 159 159 159 159 159 191 131 131 131 131 131 131 20 161
 161 161 161 161 161 81 81 61 61 61 61 61 61 47 47 47 159 159 159 77
 131 131 131 131 131 131 131 20 20 161 161 161 161 161 183 183 183 183 61 61
 61 47 47 47 47 47 47 77 77 77 131 131 131 131 131 131 20 20 20 161
 161 13 13 183 183 183 183 183 61 47 47 47 47 47 47 47 77 77 77 77
 131 131 131 131 131 20 20 20 204 204 13 13 183 183 183 183 183 183 47 47
 47 47 47 47 47 77 77 77 77 131 131 131 131 131 94 94 204 204 204 13
 13 183 183 183 183 183 173 173 173 47 47 47 47 47 77 77 77 77 74 74
 74 74 94 94 94 204 204 204 13 13 183 183 183 183 183 127 173 173 47 47
 47 47 47 114 114 162 162 162 74 74 74 94 94 94 204 153 204 13 13 183
 183 183 183 127 127 120 120 120 120 47 47 114 114 114 114 114 114 39 39 39