# vtk DataFile Version 2.0
Data set from ImportExport Version 6.5.171.b0b162591
ASCII

DATASET RECTILINEAR_GRID
DIMENSIONS 30 30 30
X_COORDINATES 30 float
-1.250000 1.250000 3.750000 6.250000 8.750000 11.250000 13.750000 16.250000 18.750000 21.250000 23.750000 26.250000 28.750000 31.250000 33.750000 36.250000 38.750000 41.250000 43.750000 46.250000 48.750000 
51.250000 53.750000 56.250000 58.750000 61.250000 63.750000 66.250000 68.750000 71.250000 
Y_COORDINATES 30 float
-1.250000 1.250000 3.750000 6.250000 8.750000 11.250000 13.750000 16.250000 18.750000 21.250000 23.750000 26.250000 28.750000 31.250000 33.750000 36.250000 38.750000 41.250000 43.750000 46.250000 48.750000 
51.250000 53.750000 56.250000 58.750000 61.250000 63.750000 66.250000 68.750000 71.250000 
Z_COORDINATES 30 float
-1.250000 1.250000 3.750000 6.250000 8.750000 11.250000 13.750000 16.250000 18.750000 21.250000 23.750000 26.250000 28.750000 31.250000 33.750000 36.250000 38.750000 41.250000 43.750000 46.250000 48.750000 
51.250000 53.750000 56.250000 58.750000 61.250000 63.750000 66.250000 68.750000 71.250000 
CELL_DATA 24389
SCALARS FeatureIds int 1
LOOKUP_TABLE default
 145 52 52 52 52 52 159 159 159 159 159 159 249 249 249 249 30 30 30 237
 237 131 131 131 131 145 145 145 145 145 52 52 52 52 52 159 159 159 159 159
 159 249 249 249 249 30 30 30 30 131 131 131 131 131 145 145 145 145 145 52
 52 52 52 52 251 159 159 159 159 159 249 249 249 249 30 30 30 30 240 131
 131 131 131 145 145 145 145 145 52 52 52 52 251 251 251 159 159 159 129 129
 249 249 249 30 30 30 240 240 240 240 240 131 145 145 145 145 145 52 52 251
 251 251 251 251 251 129 129 129 129 129 129 225 225 225 225 240 240 240 240 240
 240 14 14 145 145 37 37 251 251 251 251 251 251 251 129 129 129 129 129 129
 225 225 225 225 240 240 240 240 240 14 14 14 14 14 37 37 37 251 251 251
 251 251 251 129 129 129 129 129 129 225 225 225 225 240 240 240 240 240 14 14
 14 14 14 37 37 37 37 251 251 251 251 234 234 129 129 129 129 129 74 74
 74 74 240 240 240 240 17 17 14 14 14 14 37 37 37 229 217 217 217 234
 234 234 234 129 129 129 129 74 74 74 36 22 22 22 17 17 17 17 17 14
 14 229 37 229 229 214 214 214 234 234 234 234 234 234 129 129 36 36 36 36
 36 22 22 22 17 17 17 17 17 17 61 61 229 214 214 214 214 234 234 234
 234 234 234 129 241 36 36 36 36 36 22 22 22 17 17 17 17 61 61 61
 61 176 214 214 214 214 214 234 234 234 234 8 8 241 36 36 36 36 36 22
 22 22 22 17 17 61 61 61 176 176 176 176 214 214 214 214 234 234 8 8
 8 8 241 241 36 36 36 36 22 22 22 22 17 17 61 61 61 176 176 176
 176 214 214 214 245 245 8 8 8 8 8 241 241 36 36 36 22 22 22 22
 22 17 17 61 61 61 176 176 176 176 176 245 245 245 245 8 8 8 8 8
 241 241 160 160 25 22 22 22 22 22 21 21 21 61 61 176 176 176 176 176
 245 245 245 245 135 135 135 8 8 160 160 160 160 25 25 25 25 21 21 21
 21 21 21 21 176 176 176 176 33 245 245 245 135 135 135 135 135 135 160 160
 160 88 88 25 25 25 21 21 21 21 21 21 21 33 33 33 33 33 33 245
 245 135 135 135 135 135 127 160 160 160 88 88 25 25 25 21 21 21 21 21
 21 21 33 33 33 33 33 33 33 135 135 135 135 135 127 127 127 160 160 88
 88 25 25 25 21 21 21 21 21 21 21 33 33 33 33 33 33 33 135 135
 135 135 127 127 127 127 127 160 160 160 25 25 25 21 21 70 70 70 70 70
 33 33 33 33 33 33 48 48 135 135 253 127 127 127 127 127 127 160 160 25
 42 42 42 42 70 70 70 70 70 33 33 33 33 33 48 48 48 135 253 253
 127 127 127 127 127 127 26 26 26 42 42 42 42 42 70 70 70 70 174 33
 33 33 48 48 48 48 48 253 253 127 127 127 127 127 127 26 26 26 42 42
 42 42 42 60 60 60 60 174 174 45 45 45 45 45 45 45 253 253 127 127
 127 127 127 127 26 26 26 42 42 42 42 60 60 60 60 60 174 174 45 45
 45 45 45 45 45 253 253 127 127 127 127 127 26 26 26 26 42 42 42 60
 60 60 60 60 60 174 174 45 45 45 45 45 45 45 140 140 140 140 140 127
 212 212 26 26 42 42 42 42 60 60 60 60 60 60 45 45 45 45 45 45
 45 45 45 140 140 140 140 140 212 212 212 237 237 237 237 42 42 60 60 60
 60 60 60 45 45 45 45 45 45 45 45 159 159 140 140 140 140 212 212 212
 237 237 237 237 237 42 60 60 60 60 60 60 52 52 52 52 52 45 45 159
 159 159 159 140 140 249 249 212 212 237 237 237 237 237 131 131 60 60 145 145
 145 52 52 52 52 52 52 159 159 159 159 159 159 249 249 249 212 30 30 30
 30 30 131 131 131 131 145 145 145 145 145 52 52 52 52 52 159 159 159 159
 159 159 249 249 249 249 30 30 30 30 30 131 131 131 131 145 145 145 145 145
 52 52 52 52 52 251 159 159 159 159 159 249 249 249 249 30 30 30 30 240
 240 131 131 131 145 145 145 145 52 52 52 52 52 251 251 251 159 159 159 159
 249 249 249 249 30 30 30 240 240 240 240 240 240 240 145 145 145 229 52 52
 251 251 251 251 251 251 159 129 129 129 129 249 225 225 225 225 240 240 240 240
 240 240 14 14 145 145 229 229 229 251 251 251 251 251 251 129 129 129 129 129
 129 225 225 225 225 240 240 240 240 240 240 14 14 14 229 229 229 229 229 217
 217 251 251 251 129 129 129 129 129 129 74 225 225 225 240 240 240 240 240 17
 17 17 14 229 229 229 229 229 217 217 217 217 234 234 234 129 129 129 74 74
 74 74 74 74 240 240 240 17 17 17 17 17 229 229 229 229 229 217 217 217
 234 234 234 234 234 129 129 74 74 74 74 74 74 22 22 17 17 17 17 17
 17 17 229 229 229 229 214 214 214 234 234 234 234 234 234 234 74 74 74 74
 36 36 22 22 22 17 17 17 17 17 17 229 229 229 214 214 214 214 214 234
 234 234 234 234 241 241 241 36 36 36 36 22 22 22 17 17 17 17 17 61
 61 61 214 214 214 214 214 214 234 234 234 234 8 241 241 241 36 36 36 36
 22 22 22 22 17 17 17 17 61 176 176 176 214 214 214 214 214 214 234 8
 8 8 241 241 241 36 36 36 36 22 22 22 22 17 17 17 61 61 176 176
 176 214 214 214 214 214 214 8 8 8 8 241 241 241 241 36 36 36 22 22
 22 22 17 17 17 61 61 176 176 176 176 214 214 245 245 135 8 8 8 8
 241 241 241 88 88 36 36 22 22 22 22 21 21 21 21 61 136 136 176 176
 176 245 245 245 135 135 135 135 8 241 241 88 88 88 88 25 25 22 22 21
 21 21 21 21 21 136 136 136 33 33 245 245 245 135 135 135 135 135 241 88
 88 88 88 88 25 25 25 21 21 21 21 21 21 21 136 136 33 33 33 33
 245 135 135 135 135 135 135 16 88 88 88 88 88 25 25 25 21 21 21 21
 21 21 21 33 33 33 33 33 33 33 135 135 135 135 135 127 16 127 88 88
 88 88 25 25 25 21 21 21 21 21 21 21 33 33 33 33 33 33 33 97
 135 135 135 127 127 127 127 127 88 88 88 25 25 25 21 70 70 70 70 70
 70 33 33 33 33 33 33 33 97 135 135 127 127 127 127 127 127 127 88 88
 25 42 42 42 70 70 70 70 70 70 33 33 33 33 33 33 33 97 135 127
 127 127 127 127 127 127 127 127 26 26 42 42 42 42 70 70 70 70 70 174
 174 174 33 33 45 45 45 45 127 127 127 127 127 127 127 127 26 26 26 42
 42 42 42 60 60 60 60 174 174 174 174 45 45 45 45 45 45 127 127 127
 127 127 127 127 127 26 26 26 42 42 42 60 60 60 60 60 60 174 174 174
 45 45 45 45 45 45 140 140 127 127 127 127 127 127 26 26 42 42 42 42
 60 60 60 60 60 60 174 174 45 45 45 45 45 45 45 140 140 140 140 140
 212 212 212 212 26 42 42 42 60 60 60 60 60 60 60 174 174 45 45 45
 45 45 45 45 140 140 140 140 140 212 212 212 212 237 237 237 42 60 60 60
 60 60 60 60 45 45 45 45 45 45 45 45 159 140 140 140 140 140 212 212
 212 212 212 237 237 237 60 60 60 60 60 60 60 52 52 52 52 52 45 45
 159 159 159 140 140 140 249 212 212 212 212 212 237 237 237 60 60 60 60 60
 60 145 93 93 93 93 93 52 159 159 159 159 159 159 249 249 249 212 212 30
 30 30 30 131 113 113 113 113 145 145 145 93 93 93 93 93 52 159 159 159
 159 159 159 249 249 249 249 30 30 30 30 30 131 131 113 113 145 145 145 145
 93 93 93 93 93 52 159 159 159 159 159 159 249 249 249 249 30 30 30 30
 240 240 240 240 131 145 145 145 145 93 93 93 93 93 251 251 251 159 159 159
 159 249 249 249 249 30 30 30 240 240 240 240 240 240 240 145 145 145 229 229
 93 251 251 251 251 251 159 159 159 159 129 129 249 225 225 225 225 240 240 240
 240 240 240 240 14 145 229 229 229 229 217 217 251 251 251 251 129 129 129 129
 129 129 225 225 225 225 240 240 240 240 240 240 17 17 229 229 229 229 229 217
 217 217 217 217 217 234 129 129 129 129 74 74 74 74 74 74 240 240 240 240
 17 17 17 229 229 229 229 229 229 217 217 217 217 234 234 234 129 129 3 74
 74 74 74 74 74 240 240 240 17 17 17 17 17 229 229 229 229 229 217 217
 217 217 234 234 234 234 3 3 74 74 74 74 74 74 22 22 17 17 17 17
 17 17 229 229 229 229 229 214 214 214 214 234 234 234 234 234 3 74 74 74
 74 74 22 22 22 17 17 17 17 17 17 229 229 229 229 214 214 214 214 214
 234 234 234 234 241 241 241 241 74 36 36 36 22 22 22 17 17 17 17 17
 229 229 229 214 214 214 214 214 214 214 234 234 241 241 241 241 241 241 36 36
 36 22 22 22 22 17 17 17 17 229 229 214 214 214 214 214 214 214 214 234
 8 8 241 241 241 241 241 36 36 36 22 22 22 22 17 17 17 17 61 176
 214 214 214 214 214 214 214 72 72 8 8 241 241 241 241 241 36 36 36 22
 22 22 22 17 17 223 223 223 136 136 176 214 214 214 214 214 72 72 8 8
 241 241 241 241 241 185 36 36 22 22 22 22 21 21 21 21 21 136 136 136
 136 214 214 245 135 135 135 135 135 241 241 241 241 185 185 185 185 22 22 22
 21 21 21 21 21 21 136 136 136 136 33 33 245 135 135 135 135 135 135 241
 241 185 185 185 185 185 185 25 21 21 21 21 21 21 136 136 136 136 33 33
 33 97 97 135 135 135 135 16 16 16 185 185 185 185 185 25 25 21 21 21
 21 21 21 136 136 136 33 33 33 33 97 97 97 135 135 16 16 16 16 155
 185 185 185 185 185 25 21 21 21 21 21 21 136 33 33 33 33 33 33 97
 97 97 135 135 127 16 16 16 155 155 185 185 185 185 77 70 70 70 70 70
 70 136 33 33 33 33 33 33 33 97 97 135 127 127 127 127 127 155 155 185
 185 243 42 77 70 70 70 70 70 70 70 174 174 33 33 33 33 33 97 97
 127 127 127 127 127 127 127 127 127 243 243 42 42 42 42 70 70 70 70 174
 174 174 174 33 33 45 45 45 45 127 127 127 127 127 127 127 127 127 26 26
 42 42 42 60 60 60 60 174 174 174 174 174 174 45 45 45 45 45 127 127
 127 127 127 127 127 127 127 26 26 42 42 42 60 60 60 60 60 174 174 174
 174 45 45 45 45 45 45 140 140 127 127 127 127 127 212 212 26 42 42 42
 60 60 60 60 60 60 60 174 174 174 45 45 45 45 45 45 140 140 140 140
 212 212 212 212 212 212 42 42 42 60 60 60 60 60 60 60 174 174 174 45
 45 45 45 45 45 140 140 140 140 212 212 212 212 212 212 212 237 60 60 60
 60 60 60 60 60 174 174 12 12 12 12 12 12 159 140 140 140 140 212 212
 212 212 212 212 212 237 60 60 60 60 60 60 60 60 93 93 93 93 12 12
 12 159 159 159 140 140 140 249 212 212 212 212 212 212 237 11 60 60 60 60
 60 60 60 93 93 93 93 93 93 12 159 159 159 159 159 249 249 212 212 212
 212 30 30 30 113 113 113 113 113 113 113 145 93 93 93 93 93 93 159 159
 159 159 159 159 249 249 249 249 30 30 30 211 211 113 113 113 113 113 113 113
 145 93 93 93 93 93 93 159 159 159 159 159 159 249 249 249 249 30 211 211
 211 10 10 10 10 113 113 113 145 145 93 93 93 93 93 251 251 159 159 159
 159 159 249 249 249 249 211 211 211 211 10 10 10 10 10 10 10 145 229 229
 93 93 93 251 251 251 251 159 159 159 159 64 64 249 74 225 211 211 211 10
 10 10 10 10 10 206 229 229 229 229 229 217 217 217 217 217 217 159 159 129
 3 3 3 74 74 74 74 74 10 10 10 10 10 17 17 229 229 229 229 229
 229 217 217 217 217 217 234 3 3 3 3 3 74 74 74 74 74 10 10 10
 10 17 17 17 229 229 229 229 229 229 217 217 217 217 234 234 234 3 3 3
 3 74 74 74 74 74 10 10 10 17 17 17 17 17 229 229 229 229 229 217
 217 217 217 234 234 234 3 3 3 3 74 74 74 74 74 10 22 17 17 17
 17 17 17 229 229 229 229 229 214 214 214 214 234 234 234 234 3 3 3 74
 74 74 74 74 22 22 17 17 17 17 17 17 229 229 229 229 214 214 214 214
 214 214 234 234 234 241 241 241 74 74 36 36 22 22 22 22 17 17 17 17
 17 229 229 229 214 214 214 214 214 214 214 72 72 241 241 241 241 241 241 36
 36 36 22 22 22 22 17 17 17 17 229 229 214 214 214 214 214 214 214 72
 72 72 241 241 241 241 241 241 36 36 36 22 22 22 22 17 17 223 223 223
 136 214 214 214 214 214 214 72 72 72 72 241 241 241 241 241 241 241 36 36
 22 22 22 22 223 223 223 223 223 136 136 136 214 214 214 72 72 72 72 72
 241 241 241 241 241 241 241 185 36 22 22 22 223 223 223 223 223 223 136 136
 136 136 214 72 72 72 72 72 72 72 241 241 241 241 185 185 185 185 22 22
 22 223 223 223 223 223 223 136 136 136 136 136 72 72 135 135 135 135 135 241
 241 241 185 185 185 185 185 185 185 21 21 21 21 21 21 136 136 136 136 136
 33 33 97 97 97 135 135 16 16 16 16 185 185 185 185 185 185 185 21 21
 21 21 21 21 136 136 136 136 33 33 33 97 97 97 97 135 16 16 16 16
 155 185 185 185 185 185 77 21 21 21 21 21 21 136 136 136 33 33 33 33
 97 97 97 97 135 16 16 16 16 155 155 185 185 243 243 77 77 70 70 70
 70 70 136 136 33 33 33 33 33 97 97 97 97 127 16 16 16 16 155 155
 243 243 243 77 77 77 70 70 70 70 70 136 174 174 33 33 33 33 239 97
 97 97 127 127 127 127 127 127 243 243 243 243 77 77 77 77 70 70 70 174
 174 174 174 174 174 33 45 45 239 239 127 127 127 127 127 127 127 127 134 134
 134 134 77 77 175 60 60 175 174 174 174 174 174 174 45 45 45 45 45 168
 127 127 127 127 127 127 127 134 134 134 134 134 175 175 175 175 175 175 174 174
 174 174 174 45 45 45 45 45 168 106 106 127 127 127 127 212 134 134 134 134
 134 60 175 175 175 175 175 174 174 174 174 45 45 45 45 45 45 106 106 106
 106 212 212 212 212 212 134 134 134 11 60 175 175 175 175 175 60 174 174 174
 12 12 12 12 12 12 106 106 106 106 212 212 212 212 212 212 134 11 11 60
 175 175 175 175 175 60 174 174 12 12 12 12 12 12 159 106 106 106 106 212
 212 212 212 212 212 212 11 11 175 175 175 175 175 175 175 93 93 93 93 12
 12 12 12 159 159 106 106 106 212 212 212 212 212 212 212 11 11 113 113 113
 113 60 175 175 93 93 93 93 93 12 12 159 159 159 159 178 178 249 212 212
 212 212 211 211 211 113 113 113 113 113 113 113 201 93 93 93 93 93 93 123
 123 159 159 159 159 249 249 249 212 211 211 211 211 211 113 113 113 113 113 113
 113 201 93 93 93 93 93 93 123 123 123 159 64 64 64 249 249 211 211 211
 211 211 211 10 113 113 113 113 113 113 201 93 93 93 93 93 93 123 123 123
 159 64 64 64 64 249 211 211 211 211 211 211 10 10 10 113 181 181 206 201
 89 89 93 93 93 123 123 123 123 159 64 64 64 64 3 211 211 211 211 211
 10 10 10 10 10 206 206 206 229 89 89 229 229 217 217 217 217 123 159 64
 64 3 3 3 74 74 74 74 211 10 10 10 10 10 206 206 206 229 89 89
 229 229 217 217 217 217 217 217 3 3 3 3 3 74 74 74 74 74 10 10
 10 10 10 206 206 229 229 229 229 229 229 217 217 217 217 217 234 3 3 3
 3 3 74 74 74 74 74 10 10 10 10 17 17 17 229 229 229 229 229 229
 217 217 217 217 234 234 234 3 3 3 3 74 74 74 74 74 10 10 17 17
 17 17 17 229 229 229 229 229 229 214 214 214 214 214 234 234 3 3 3 3
 74 74 74 74 74 22 22 17 17 17 17 17 229 229 229 229 34 34 214 214
 214 214 214 72 72 146 3 3 3 121 74 74 36 22 22 22 22 17 17 17
 17 229 229 229 34 34 34 214 214 214 214 72 72 72 72 241 241 241 121 121
 121 36 36 22 22 22 22 17 17 223 229 229 34 34 34 34 214 214 214 72
 72 72 72 72 241 241 241 121 121 121 36 36 22 22 22 22 223 223 223 223
 223 34 34 34 214 214 214 72 72 72 72 72 72 241 241 241 121 121 121 121
 189 22 22 22 223 223 223 223 223 223 136 136 34 214 214 72 72 72 72 72
 72 72 241 241 241 121 121 121 121 189 189 22 223 223 223 223 223 223 223 136
 136 136 136 72 72 72 72 72 72 72 72 241 241 241 241 185 185 185 185 185
 223 223 223 223 223 223 223 223 136 136 136 136 136 72 72 72 112 112 112 112
 241 241 241 185 185 185 185 185 185 185 223 223 223 223 223 223 136 136 136 136
 136 33 33 97 112 112 112 112 112 16 16 16 185 185 185 185 185 185 185 21
 21 223 223 223 223 136 136 136 136 136 33 33 97 97 112 112 112 16 16 16
 16 155 185 185 185 185 185 77 77 21 21 21 21 147 136 136 136 136 33 33
 239 97 97 97 97 112 16 16 16 16 155 243 243 243 243 77 77 77 77 70
 70 147 147 147 136 33 33 33 239 239 239 239 97 97 16 16 16 16 16 155
 243 243 243 243 77 77 77 77 70 70 147 147 147 174 174 33 33 239 239 239
 239 239 239 16 16 16 16 16 243 243 243 134 134 77 77 77 77 77 191 191
 147 174 174 174 174 174 239 239 239 239 239 168 127 127 127 127 127 127 243 134
 134 134 134 77 77 77 175 175 175 174 174 174 174 174 174 45 239 239 168 168
 168 168 236 236 236 236 236 134 134 134 134 134 134 77 175 175 175 175 175 174
 174 174 174 174 45 45 168 168 168 168 168 236 236 236 236 236 134 134 134 134
 134 134 134 175 175 175 175 175 174 174 174 174 174 12 12 12 168 168 168 178
 178 236 236 212 212 212 212 134 134 134 11 11 175 175 175 175 175 174 174 174
 174 12 12 12 12 12 168 178 178 178 178 212 212 212 212 212 11 11 11 11
 11 175 175 175 175 175 175 174 174 12 12 12 12 12 12 168 178 178 178 178
 178 212 212 212 212 212 11 11 11 11 113 175 175 175 175 175 93 93 93 93
 12 12 12 12 159 159 178 178 178 178 212 212 212 212 212 11 11 11 113 113
 113 113 175 175 175 201 93 93 93 93 12 123 123 159 159 178 178 178 178 212
 212 212 211 211 211 11 113 113 113 113 113 113 201 201 201 93 93 93 93 93
 123 123 123 123 64 64 64 64 249 211 211 211 211 211 211 113 113 113 113 113
 113 201 201 201 93 93 93 93 123 123 123 123 123 64 64 64 64 249 211 211
 211 211 211 211 211 113 113 113 181 181 181 201 201 201 93 93 93 123 123 123
 123 123 64 64 64 64 64 211 211 211 211 211 211 10 96 96 96 181 181 206
 201 89 89 89 13 123 123 123 123 123 123 64 64 64 64 3 211 211 211 211
 211 211 10 96 96 96 206 206 206 206 89 89 89 13 217 217 217 123 123 123
 64 64 3 3 3 3 211 211 211 211 10 10 96 96 96 206 206 206 206 89
 89 89 89 217 217 217 217 217 3 3 3 3 3 3 3 74 74 74 74 10
 10 96 96 96 206 206 206 89 89 89 89 229 217 217 217 217 217 146 146 3
 3 3 3 3 74 74 74 74 10 10 96 96 96 206 206 206 89 89 89 229
 229 217 217 217 217 217 146 146 3 3 3 3 3 74 74 74 74 74 10 96
 231 231 231 231 231 89 229 229 229 229 34 214 214 214 72 146 146 146 146 3
 3 3 74 74 74 74 74 22 231 231 231 231 231 231 229 229 229 34 34 34
 214 214 214 72 72 146 146 156 156 156 156 74 74 74 74 22 22 231 231 231
 231 231 231 229 229 34 34 34 34 214 214 72 72 72 72 72 156 156 156 121
 121 121 189 189 22 22 22 231 231 231 231 231 229 34 34 34 34 34 214 72
 72 72 72 72 72 156 241 121 121 121 121 189 189 189 189 22 223 223 223 223
 223 223 100 34 34 34 34 72 72 72 72 72 72 72 241 241 121 121 121 121
 189 189 189 189 223 223 223 223 223 223 223 100 199 199 199 199 72 72 72 72
 72 72 72 241 241 121 121 121 121 189 189 189 189 223 223 223 223 223 223 100
 100 199 199 199 199 72 72 72 72 72 72 72 241 241 121 121 121 185 185 189
 189 189 223 223 223 223 223 223 100 136 136 199 199 199 72 72 72 112 112 112
 112 112 24 24 24 24 185 185 185 185 223 223 223 223 223 223 100 100 136 136
 136 199 199 239 72 112 112 112 112 112 16 24 24 24 24 185 185 185 185 77
 223 223 223 223 223 147 147 136 136 136 136 239 239 239 112 112 112 112 112 16
 16 24 24 243 243 243 243 243 77 77 77 147 147 147 147 147 147 136 136 239
 239 239 239 239 112 112 112 16 16 16 16 243 243 243 243 243 77 77 77 77
 147 147 147 147 147 147 147 239 239 239 239 239 239 239 112 112 16 16 16 16
 243 243 243 243 243 77 77 77 77 191 147 147 147 147 174 174 232 239 239 239
 239 239 239 239 236 236 236 236 236 243 243 243 134 134 77 77 77 77 191 191
 191 147 147 174 174 232 232 239 239 239 239 239 168 236 236 236 236 236 236 236
 134 134 134 134 77 77 191 191 191 191 147 174 174 174 232 232 232 239 239 168
 168 168 168 236 236 236 236 236 236 134 134 134 134 134 77 191 191 191 191 191
 174 174 174 232 232 232 239 168 168 168 168 168 236 236 236 236 236 236 134 134
 134 134 134 77 175 175 175 175 175 174 174 174 232 232 232 12 168 168 168 168
 168 178 236 236 236 236 212 134 134 134 11 11 11 175 175 175 175 175 174 174
 174 232 232 12 12 168 168 168 168 178 178 178 178 236 212 212 212 11 11 11
 11 11 11 175 175 175 175 175 201 174 12 12 12 12 12 168 91 91 178 178
 178 178 212 212 212 212 11 11 11 11 11 113 113 113 175 175 175 201 93 93
 93 12 12 12 91 91 91 178 178 178 178 212 212 212 212 11 11 11 11 113
 113 113 113 113 113 201 201 201 201 201 93 227 227 227 91 91 91 178 178 178
 87 87 211 211 211 11 11 11 113 113 113 113 113 201 201 201 201 201 201 93
 123 123 123 123 123 151 151 151 151 151 211 211 211 211 211 211 11 113 113 113
 113 113 201 201 201 201 201 201 93 123 123 123 123 123 151 151 151 151 151 211
 211 211 211 211 211 211 113 113 181 181 181 181 201 201 201 201 13 13 123 123
 123 123 151 151 151 151 151 151 211 211 211 211 211 211 96 96 96 181 181 181
 206 201 89 13 13 13 13 123 123 123 123 151 151 151 151 151 151 211 211 211
 211 211 211 96 96 96 96 206 206 206 206 89 89 13 13 13 13 123 123 123
 151 151 151 151 3 3 255 255 211 211 211 211 96 96 96 96 206 206 206 206
 89 89 89 13 13 13 217 217 9 9 151 3 3 3 3 3 255 255 255 255
 10 96 96 96 96 206 206 206 89 89 89 89 89 13 217 217 217 217 146 146
 3 3 3 3 3 255 255 255 255 255 96 96 96 96 206 206 206 89 89 89
 89 229 217 217 217 217 146 146 146 146 146 3 3 3 255 255 255 255 255 96
 96 231 231 231 231 231 89 89 89 229 34 34 214 214 72 146 146 146 146 146
 156 156 156 255 255 255 255 255 231 231 231 231 231 231 231 231 229 229 34 34
 34 214 214 72 72 146 146 146 156 156 156 156 156 255 189 189 189 22 231 231
 231 231 231 231 231 34 34 34 34 34 214 72 72 72 72 72 156 156 156 156
 156 121 189 189 189 189 189 231 231 231 231 231 231 231 100 34 34 34 34 72
 72 72 72 72 72 156 156 156 156 121 121 189 189 189 189 189 189 223 223 223
 223 223 100 100 199 199 199 199 72 72 72 72 72 72 72 156 156 121 121 121
 121 189 189 189 189 189 223 223 223 223 100 100 100 199 199 199 199 72 72 72
 72 72 72 72 241 121 121 121 121 121 189 189 189 189 189 223 223 223 223 100
 100 100 199 199 199 199 199 72 72 72 72 72 72 72 24 24 24 24 24 189
 189 189 189 223 223 223 223 223 100 100 100 199 199 199 199 199 72 72 72 112
 112 112 24 24 24 24 24 24 185 189 189 189 223 223 223 223 100 100 100 147
 199 199 199 199 199 72 112 112 112 112 112 24 24 24 24 24 24 243 243 46
 46 46 223 223 147 147 147 147 147 136 136 239 239 239 239 112 112 112 112 112
 24 24 24 24 243 243 243 243 46 46 46 46 147 147 147 147 147 147 147 239
 239 239 239 239 239 239 112 112 112 16 24 24 24 243 243 243 243 46 46 46
 46 147 147 147 147 147 147 147 239 239 239 239 239 239 239 239 236 236 236 236
 236 243 243 243 243 243 77 77 77 191 191 147 147 147 147 147 232 232 239 239
 239 239 239 239 239 236 236 236 236 236 236 243 243 134 134 77 77 77 191 191
 191 191 147 147 174 232 232 232 239 239 239 239 168 168 236 236 236 236 236 236
 236 134 134 134 134 77 77 191 191 191 191 147 147 174 232 232 232 232 239 239
 168 168 168 168 236 236 236 236 236 236 134 134 134 134 134 191 191 191 191 191
 191 174 174 232 232 232 232 239 168 168 168 168 168 236 236 236 236 236 236 134
 134 134 134 11 191 191 191 191 191 191 174 174 232 232 232 232 168 168 168 168
 168 168 236 236 236 236 236 236 134 134 11 11 11 11 11 175 175 175 175 174
 201 232 232 232 232 168 168 168 168 91 91 178 178 236 236 236 236 11 11 11
 11 11 11 11 175 175 175 175 175 201 201 201 12 12 12 168 168 91 91 91
 178 178 178 212 212 212 11 11 11 11 11 11 113 113 113 113 113 201 201 201
 201 93 12 12 12 91 91 91 91 178 178 178 178 212 212 212 11 11 11 11
 113 113 113 113 113 201 201 201 201 201 201 201 227 227 227 227 91 91 178 178
 178 87 87 87 211 211 172 11 11 113 113 113 113 113 201 201 201 201 201 201
 227 227 227 227 227 227 151 151 151 151 87 87 87 211 211 211 211 11 113 113
 113 181 181 201 201 201 201 201 201 201 227 227 123 123 151 151 151 151 151 87
 87 211 211 211 211 211 96 96 96 181 181 181 201 201 201 201 201 13 13 123
 123 123 123 151 151 151 151 151 151 211 211 211 211 211 211 96 96 96 181 181
 181 206 201 201 13 13 13 13 13 123 123 9 151 151 151 151 151 255 255 211
 211 211 211 211 96 96 96 96 206 206 206 201 89 13 13 13 13 13 123 9
 9 9 18 18 18 18 255 255 255 255 255 255 96 96 96 96 96 206 206 206
 206 89 89 13 13 13 13 13 9 9 9 18 18 18 3 255 255 255 255 255
 255 255 96 96 96 96 206 206 206 89 89 89 89 13 13 13 13 9 9 146
 146 146 146 3 3 255 255 255 255 255 255 96 96 96 96 206 206 231 89 89
 89 89 229 13 13 217 146 146 146 146 146 146 146 3 255 255 255 255 255 255
 96 231 231 231 231 231 231 231 89 89 229 34 34 214 214 72 146 146 146 146
 146 156 156 255 255 255 255 255 255 231 231 231 231 231 231 231 231 229 229 34
 34 34 214 214 72 72 146 146 146 156 156 156 156 255 255 255 255 189 231 231
 231 231 231 231 231 231 117 117 34 34 34 72 72 72 72 72 146 156 156 156
 156 156 121 189 189 189 189 189 231 231 231 231 231 231 231 117 117 117 34 34
 72 72 72 72 72 72 156 156 156 156 156 121 189 189 189 189 189 189 75 75
 75 75 92 92 117 117 117 199 199 72 72 72 72 72 72 72 156 156 156 121
 121 189 189 189 189 189 189 75 75 75 100 100 100 100 117 199 199 199 72 72
 72 72 72 72 72 156 121 121 121 121 189 189 189 189 189 189 75 75 100 100
 100 100 100 199 199 199 199 199 72 72 72 72 72 72 72 24 24 24 24 24
 189 189 189 189 189 223 223 100 100 100 100 100 199 199 199 199 199 72 72 72
 72 112 112 24 24 24 24 24 24 189 189 189 46 46 228 228 100 100 100 100
 147 199 199 199 199 199 72 112 112 112 112 112 24 24 24 24 24 24 243 46
 46 46 46 46 228 228 147 147 147 147 147 239 239 239 239 239 239 112 112 112
 112 24 24 24 24 24 24 243 46 46 46 46 46 228 147 147 147 147 147 147
 239 239 239 239 239 239 239 112 112 236 24 24 24 24 24 243 243 46 46 46
 46 46 147 147 147 147 147 147 147 239 239 239 239 239 239 239 239 236 236 236
 236 236 236 243 243 243 46 46 46 46 46 191 147 147 147 147 147 232 232 239
 239 239 239 239 239 239 236 236 236 236 236 236 236 243 134 134 46 46 46 191
 191 191 191 147 147 147 232 232 232 239 239 239 239 168 168 236 236 236 236 236
 236 236 134 134 134 134 77 191 191 191 191 191 147 147 232 232 232 232 232 239
 239 168 168 168 168 236 236 236 236 236 236 134 134 134 134 134 191 191 191 191
 191 147 147 232 232 232 232 232 232 168 168 168 168 168 236 236 236 236 236 236
 134 134 134 115 11 191 191 191 191 191 191 191 232 232 232 232 232 168 168 168
 168 168 168 168 236 236 236 236 236 236 134 11 11 11 11 191 191 191 191 191
 191 201 232 232 232 232 168 168 168 168 91 91 91 236 236 236 236 236 172 172
 11 11 11 11 11 113 118 118 118 201 201 201 201 201 12 168 168 168 91 91
 91 91 178 178 236 236 104 172 172 11 11 11 11 113 113 113 113 201 201 201
 201 201 201 12 227 227 91 91 91 91 91 178 178 178 87 104 172 172 172 11
 11 11 113 113 113 113 201 201 201 201 201 201 227 227 227 227 227 227 91 91
 151 87 87 87 87 87 172 172 172 172 113 113 113 113 201 201 201 201 201 201
 201 227 227 227 227 227 227 151 151 151 151 87 87 87 95 95 95 172 172 113
 113 113 181 201 201 201 201 201 201 201 227 227 227 227 227 227 151 151 151 151
 87 87 95 95 95 95 95 96 96 96 181 181 181 201 201 98 98 98 13 13
 227 227 227 227 151 151 151 151 151 87 95 95 95 95 95 211 96 96 96 181
 181 181 201 201 98 98 13 13 13 13 123 9 9 9 18 18 18 18 255 255
 95 95 95 255 255 96 96 96 96 206 206 206 201 98 13 13 13 13 13 9
 9 9 9 18 18 18 18 255 255 255 255 255 255 255 96 96 96 96 206 206
 206 206 89 13 13 13 13 13 9 9 9 9 18 18 18 18 255 255 255 255
 255 255 255 96 96 96 96 206 206 206 206 89 89 13 13 13 154 9 9 9
 9 18 18 18 18 255 255 255 255 255 255 255 96 96 96 96 206 206 206 206
 89 89 89 13 154 154 154 9 9 146 146 146 146 146 255 255 255 255 255 255
 255 255 96 231 231 231 231 231 231 89 89 154 154 154 154 154 146 146 146 146
 146 146 156 156 255 255 255 255 255 255 255 231 231 231 231 231 231 231 117 117
 117 34 154 154 72 72 146 146 146 146 156 156 156 156 255 255 255 255 255 165
 231 231 231 231 231 231 231 117 117 117 117 34 72 72 72 72 72 146 156 156
 156 156 156 255 189 189 189 189 165 165 231 231 231 75 92 92 117 117 117 117
 34 72 72 72 72 72 72 156 156 156 156 156 156 189 189 189 189 189 75 75
 75 75 75 92 92 117 117 117 117 199 72 72 72 72 72 72 72 156 156 156
 156 121 189 189 189 189 189 189 75 75 75 92 92 92 117 117 117 199 199 199
 72 72 72 72 72 208 208 156 121 121 121 189 189 189 189 189 189 75 75 75
 100 100 100 100 117 199 199 199 199 72 72 72 72 208 208 208 24 24 24 24
 24 189 189 189 189 46 75 75 100 100 100 100 100 199 199 199 199 199 72 72
 72 72 208 208 208 24 63 24 24 24 24 189 46 46 46 228 228 228 100 100
 100 100 199 199 199 199 199 239 72 112 112 208 208 208 24 24 24 24 24 24
 46 46 46 46 228 228 228 228 147 147 147 147 56 56 239 239 239 239 186 112
 186 208 208 24 24 24 24 24 46 46 46 46 46 46 228 228 147 147 147 147
 147 56 239 239 239 239 239 239 112 139 236 236 24 24 24 24 24 46 46 46
 46 46 46 46 147 147 147 147 147 147 239 239 239 239 239 239 239 239 236 236
 236 236 236 236 24 24 46 46 46 46 46 46 191 147 147 147 147 147 147 239
 239 239 239 239 239 239 239 236 236 236 236 236 236 236 115 115 46 46 46 46
 191 191 191 147 147 147 147 232 232 232 239 239 239 239 168 168 236 236 236 236
 236 236 236 115 115 115 115 46 191 191 191 191 191 147 147 232 232 232 232 232
 239 239 168 168 168 168 236 236 236 236 236 236 115 115 115 115 115 191 191 191
 191 191 191 147 232 232 232 232 232 232 168 168 168 168 168 236 236 236 236 236
 236 115 115 115 115 115 191 191 191 191 118 118 118 232 232 232 232 232 168 168
 168 168 168 168 168 236 236 236 236 104 172 172 172 115 11 11 118 118 118 118
 118 118 201 232 232 232 232 168 168 168 168 168 91 91 236 236 236 104 104 172
 172 172 172 11 11 118 118 118 118 118 76 201 201 201 201 232 168 168 168 91
 91 91 91 178 236 104 104 104 172 172 172 172 11 11 113 118 118 118 76 201
 201 201 201 201 201 227 227 227 91 91 91 91 91 104 104 87 104 172 172 172
 172 172 11 113 113 113 76 201 201 201 108 108 108 227 227 227 227 227 227 227
 227 87 87 87 87 87 87 172 172 172 172 113 113 148 148 201 201 201 201 108
 108 108 227 227 227 227 227 227 227 151 151 87 87 87 87 95 95 95 172 172
 96 113 148 148 201 201 201 201 108 108 108 227 227 227 227 227 227 151 151 151
 87 87 87 95 95 95 95 95 96 96 96 181 181 181 201 201 98 98 98 98
 227 227 227 227 227 9 18 18 18 18 87 95 95 95 95 95 95 96 96 96
 96 181 181 98 98 98 98 98 13 13 227 227 9 9 9 18 18 18 18 87
 95 95 95 95 95 95 96 96 96 96 206 206 206 98 98 98 98 13 13 13
 9 9 9 9 18 18 18 18 255 255 255 255 255 255 255 96 96 96 96 206
 206 206 206 98 98 13 13 154 154 9 9 9 9 18 18 18 18 255 255 255
 255 255 255 255 96 96 96 96 206 206 206 206 154 154 154 154 154 154 154 9
 9 9 18 18 18 18 255 255 255 255 255 255 255 165 96 96 96 231 206 231
 231 154 154 154 154 154 154 154 9 9 107 107 107 107 107 255 255 255 255 255
 255 255 165 165 231 231 231 231 231 231 154 154 154 154 154 154 154 154 107 107
 107 107 107 156 255 255 255 255 255 255 165 165 165 231 231 231 231 231 231 117
 154 154 154 154 154 154 99 99 107 107 107 156 156 156 255 255 255 255 255 165
 165 165 165 231 231 231 231 231 117 117 117 117 154 154 99 99 99 99 99 156