# vtk DataFile Version 2.0
Data set from ImportExport Version 6.5.171.b0b162591
ASCII

DATASET RECTILINEAR_GRID
DIMENSIONS 30 30 30
X_COORDINATES 30 float
-1.250000 1.250000 3.750000 6.250000 8.750000 11.250000 13.750000 16.250000 18.750000 21.250000 23.750000 26.250000 28.750000 31.250000 33.750000 36.250000 38.750000 41.250000 43.750000 46.250000 48.750000 
51.250000 53.750000 56.250000 58.750000 61.250000 63.750000 66.250000 68.750000 71.250000 
Y_COORDINATES 30 float
-1.250000 1.250000 3.750000 6.250000 8.750000 11.250000 13.750000 16.250000 18.750000 21.250000 23.750000 26.250000 28.750000 31.250000 33.750000 36.250000 38.750000 41.250000 43.750000 46.250000 48.750000 
51.250000 53.750000 56.250000 58.750000 61.250000 63.750000 66.250000 68.750000 71.250000 
Z_COORDINATES 30 float
-1.250000 1.250000 3.750000 6.250000 8.750000 11.250000 13.750000 16.250000 18.750000 21.250000 23.750000 26.250000 28.750000 31.250000 33.750000 36.250000 38.750000 41.250000 43.750000 46.250000 48.750000 
51.250000 53.750000 56.250000 58.750000 61.250000 63.750000 66.250000 68.750000 71.250000 
CELL_DATA 24389
SCALARS FeatureIds int 1
LOOKUP_TABLE default
 130 187 187 187 187 187 187 187 232 232 232 9 9 9 9 9 9 9 138 138
 138 76 76 76 202 202 202 202 202 130 187 187 187 187 187 187 187 187 187 187
 9 58 58 58 9 19 19 138 138 138 138 76 202 202 202 202 202 202 130 130
 187 187 187 187 187 187 187 187 187 187 58 58 19 19 19 19 138 138 138 138
 222 218 218 218 202 202 202 130 130 187 187 187 187 187 187 187 187 187 187 19
 19 19 19 19 19 138 138 138 138 222 218 218 218 218 218 202 130 130 67 67
 67 67 67 187 187 187 187 187 19 19 19 19 19 19 19 145 145 145 222 150
 150 150 150 218 202 130 67 67 67 67 67 67 67 187 187 187 187 19 19 19
 19 19 19 145 145 145 145 145 150 150 150 150 150 150 56 56 56 67 67 67
 67 67 67 187 187 19 19 19 19 19 19 19 145 145 145 145 145 150 150 150
 150 150 150 56 56 56 56 56 67 67 67 67 187 187 19 19 19 242 242 242
 242 145 145 145 137 137 73 73 73 73 73 73 56 56 56 56 56 56 67 67
 67 187 187 19 19 242 242 242 242 242 242 145 137 137 137 73 73 73 73 73
 73 56 56 56 56 56 56 56 67 84 84 84 177 177 177 177 177 177 177 137
 137 137 137 137 73 73 73 73 73 73 214 56 56 56 56 56 180 84 84 84
 84 177 177 177 177 177 177 177 148 137 137 137 137 73 73 73 73 73 73 214
 214 56 56 56 56 84 84 84 84 84 84 177 177 177 177 177 148 148 148 148
 148 137 73 73 73 73 73 214 80 80 214 56 56 178 84 84 84 84 84 84
 114 114 114 114 148 148 148 148 148 148 148 73 73 73 73 73 214 80 80 80
 56 178 178 84 84 84 84 84 84 114 114 114 114 114 148 148 148 148 148 165
 38 38 38 38 38 38 80 80 80 164 178 178 178 84 84 84 93 93 114 114
 114 114 114 148 148 148 148 165 165 165 38 38 38 38 38 80 164 164 164 178
 178 51 51 25 25 93 93 114 114 114 195 195 148 148 148 165 165 165 165 38
 38 38 38 38 164 164 164 164 164 178 51 51 25 25 25 93 114 114 195 195
 195 195 165 165 165 165 165 165 38 38 38 38 38 164 164 164 164 164 51 51
 51 25 25 25 25 114 195 195 195 195 195 165 165 165 165 165 165 165 38 228
 228 228 228 164 164 164 164 164 51 51 25 25 25 25 114 195 195 195 195 195
 165 165 165 165 165 165 165 228 228 228 228 228 140 140 164 164 16 16 16 16
 25 25 25 195 195 195 195 195 195 165 165 165 165 165 165 165 228 228 228 228
 228 140 140 140 140 16 16 16 16 16 16 16 195 195 195 195 195 230 230 230
 165 165 165 165 165 228 228 228 228 228 140 140 140 140 16 16 16 16 16 16
 16 16 157 157 157 157 157 230 230 230 165 68 68 68 228 228 228 228 140 140
 140 140 140 16 16 16 16 16 16 16 157 157 157 157 157 157 230 230 230 68
 68 68 68 68 228 228 228 140 140 140 140 140 16 16 16 16 16 16 16 157
 157 157 157 157 157 230 230 230 68 68 68 68 68 68 228 228 140 140 140 140
 140 125 125 125 125 232 232 232 157 157 157 157 157 157 115 230 68 68 68 68
 68 68 68 68 228 140 140 140 140 140 125 125 125 232 232 232 232 9 9 9
 157 157 115 115 230 68 68 68 68 68 68 68 68 68 201 140 140 140 232 232
 232 232 232 232 232 232 9 9 9 9 9 115 115 76 76 76 68 68 68 68
 68 202 202 149 149 149 217 232 232 232 232 232 232 232 232 9 9 9 9 9
 9 76 76 76 76 76 76 76 202 202 202 202 149 149 149 217 232 232 232 232
 232 232 232 232 9 9 9 9 9 9 76 76 76 76 76 76 76 202 202 202
 202 130 130 187 187 187 187 187 187 232 232 232 232 9 9 9 9 9 19 138
 138 76 76 76 76 76 202 202 202 202 130 130 187 187 187 187 187 187 187 187
 187 232 58 58 58 19 19 19 138 138 222 222 76 76 202 202 202 202 202 130
 130 61 61 187 187 187 187 187 187 187 187 58 19 19 19 19 19 19 222 222
 222 222 222 218 218 202 202 202 130 130 61 61 187 187 187 153 187 187 187 187
 19 19 19 19 19 19 19 222 222 222 222 222 7 7 7 218 202 130 130 61
 61 187 187 187 187 187 187 187 187 19 19 19 19 19 19 19 145 222 222 222
 7 7 7 7 7 7 130 130 67 67 67 67 67 187 187 187 187 187 19 19
 19 19 19 19 19 145 145 222 222 7 7 7 7 7 7 56 56 56 67 67
 67 67 67 187 187 187 19 19 19 19 19 19 19 19 145 145 137 137 7 7
 7 7 7 7 56 56 56 56 56 67 67 67 187 187 187 19 19 19 242 242
 242 242 19 137 137 137 137 137 7 73 7 7 7 56 56 56 56 56 180 180
 180 180 187 96 19 19 242 242 242 242 242 137 137 137 137 137 137 73 73 73
 73 73 214 56 56 56 56 180 180 180 180 84 96 177 177 177 177 177 177 177
 137 137 137 137 137 137 73 73 73 73 73 214 214 56 56 56 180 180 180 84
 84 84 177 177 177 177 177 177 177 137 137 137 137 137 137 73 73 73 73 214
 214 214 214 56 56 180 180 84 84 84 84 114 114 177 177 177 177 177 148 148
 148 137 137 137 73 73 73 214 214 214 214 214 214 56 178 84 84 84 84 114
 114 114 114 114 114 114 148 148 148 148 148 137 137 219 219 219 214 214 80 80
 80 98 178 178 178 84 84 84 114 114 114 114 114 114 114 148 148 148 148 148
 165 165 219 219 219 219 214 80 80 80 98 178 178 178 178 84 84 114 114 114
 114 114 114 114 148 148 148 148 165 165 165 219 219 219 219 80 80 80 164 164
 178 178 178 51 25 25 25 114 114 114 114 114 195 148 148 148 165 165 165 165
 219 219 219 219 219 80 164 164 164 164 178 51 51 25 25 25 114 114 114 195
 195 195 195 165 165 165 165 165 165 219 219 219 219 228 164 164 164 164 164 51
 51 51 25 25 25 25 114 114 195 195 195 195 165 165 165 165 165 165 165 219
 228 228 228 228 164 164 164 164 51 51 51 25 25 25 25 114 195 195 195 195
 195 116 165 165 165 165 165 165 228 228 228 228 228 228 164 164 164 16 16 16
 16 25 25 25 114 195 195 195 195 116 116 116 165 165 165 165 165 228 228 228
 228 228 140 140 140 140 16 16 16 16 16 16 25 114 195 85 195 195 116 116
 116 116 165 165 165 165 228 228 228 228 228 140 140 140 140 16 16 16 16 16
 16 16 85 85 85 157 157 116 116 116 116 165 68 68 68 228 228 228 228 140
 140 140 140 140 16 16 16 16 16 16 16 157 157 157 157 157 115 115 115 116
 68 68 68 68 68 228 228 228 140 140 140 140 140 16 125 125 125 125 125 125
 157 157 157 157 157 115 115 115 115 68 68 68 68 68 68 228 228 201 140 140
 140 125 125 125 125 125 125 232 232 157 157 157 157 157 115 115 115 68 68 68
 68 68 68 68 68 228 201 201 140 140 125 125 125 125 125 232 232 232 9 157
 157 157 85 115 115 76 76 68 68 68 68 68 68 68 68 201 201 201 217 217
 125 125 232 232 232 232 232 9 9 9 9 85 115 115 76 76 76 76 76 68
 68 68 68 201 149 149 149 217 217 232 232 232 232 72 232 232 9 9 9 9
 9 115 76 76 76 76 76 76 76 68 17 202 202 149 149 149 217 217 232 232
 232 232 232 232 232 9 9 9 9 9 9 76 76 76 76 76 76 76 76 202
 202 202 130 130 130 187 187 187 187 187 232 232 232 232 232 9 108 108 19 19
 76 76 76 76 76 76 76 76 202 202 202 130 130 130 187 187 187 187 187 187
 187 187 232 232 19 19 19 19 19 19 222 222 222 222 76 11 11 202 202 202
 130 130 61 61 61 61 187 187 187 187 187 187 19 19 19 19 19 19 19 222
 222 222 222 222 7 7 7 7 130 130 130 130 61 61 61 187 187 187 187 187
 187 19 19 19 19 19 19 19 222 222 222 222 222 7 7 7 7 130 130 130
 61 61 61 61 187 187 187 187 187 187 19 19 19 19 19 19 19 222 222 222
 222 7 7 7 7 7 7 130 130 61 61 187 187 187 187 187 187 187 187 19
 19 19 19 19 19 19 19 222 222 222 7 7 7 7 7 7 28 28 28 28
 187 187 187 187 187 187 187 19 19 19 19 19 19 19 19 19 137 137 137 7
 7 7 7 7 7 28 28 28 28 180 180 180 180 187 187 96 19 19 19 242
 242 242 242 137 137 137 137 137 137 7 7 7 7 7 214 56 28 28 180 180
 180 180 180 96 96 96 19 242 242 242 242 242 137 137 137 137 137 137 137 73
 7 7 214 214 214 56 28 180 180 180 180 180 180 96 96 177 177 177 177 177
 177 137 137 137 137 137 137 137 73 73 214 214 214 214 214 56 180 180 180 180
 180 88 41 114 114 177 177 177 177 177 137 137 137 137 137 137 137 73 73 214
 214 214 214 214 214 180 180 180 180 88 88 41 114 114 114 114 177 177 148 148
 148 137 137 137 137 137 73 73 214 214 214 214 214 214 180 178 180 88 88 88
 114 114 114 114 114 114 114 148 148 148 148 148 137 137 219 219 219 214 214 80
 80 80 98 178 178 178 178 88 88 114 114 114 114 114 114 114 148 148 148 148
 148 165 219 219 219 219 219 214 80 80 80 98 178 178 178 178 88 88 114 114
 114 114 114 114 114 148 148 148 148 165 165 219 219 219 219 219 80 80 80 98
 98 178 178 178 178 25 25 114 114 114 114 114 114 114 148 148 165 165 165 165
 219 219 219 219 219 80 80 164 164 164 178 178 178 51 25 25 25 114 114 114
 114 195 195 195 165 165 165 165 165 165 219 219 219 219 219 164 164 164 164 164
 178 51 51 25 25 25 114 114 114 195 195 195 195 116 165 165 165 165 165 219
 219 219 228 228 228 164 164 164 164 51 51 51 25 25 25 25 114 114 195 195
 195 116 116 116 165 165 165 165 165 228 228 228 228 228 228 164 164 164 16 16
 16 16 25 25 25 114 114 195 195 195 116 116 116 116 165 165 165 165 228 228
 228 228 228 140 140 140 140 16 16 16 16 16 16 25 114 85 85 85 85 116
 116 116 116 116 165 165 165 228 228 228 228 228 140 140 140 16 16 16 16 16
 16 16 16 85 85 85 85 85 115 116 116 116 116 68 68 68 228 228 228 228
 140 140 140 140 140 16 16 16 16 16 16 16 85 85 85 85 85 115 115 115
 116 68 68 68 68 68 228 228 228 201 140 140 140 16 16 125 125 125 125 125
 125 85 85 85 85 85 115 115 115 116 68 68 68 68 68 68 228 228 201 201
 201 140 125 125 125 125 125 125 125 125 85 85 85 85 85 115 115 115 115 68
 68 68 68 68 68 68 201 201 201 201 217 217 125 125 125 125 232 232 232 232
 85 85 85 85 115 115 76 76 76 68 68 68 68 68 68 201 201 201 201 217
 217 125 125 232 232 232 232 232 9 85 85 85 85 115 115 76 76 76 76 76
 68 17 17 17 201 149 149 149 217 217 217 232 232 232 232 232 232 9 9 9
 85 85 115 76 76 76 76 76 76 76 17 17 17 149 149 149 149 217 217 232
 232 232 232 232 232 232 9 9 9 9 85 76 76 76 76 76 76 76 76 17
 17 17 149 130 130 130 61 61 187 187 187 232 232 232 232 108 108 108 108 108
 108 128 128 128 128 76 128 11 17 17 17 130 130 130 130 61 61 61 187 187
 187 187 187 232 108 108 108 19 19 87 128 128 128 128 128 11 11 11 17 17
 130 130 130 130 61 61 61 61 187 187 187 187 187 19 19 19 19 19 87 87
 222 222 222 222 11 11 11 7 7 130 130 130 130 61 61 61 61 187 187 187
 187 187 19 19 19 19 19 19 87 222 222 222 222 222 7 7 7 7 130 130
 130 130 61 61 61 61 187 187 187 187 187 19 19 19 19 19 19 19 222 222
 222 222 7 7 7 7 7 130 130 130 130 61 61 61 187 187 187 187 187 96
 19 19 19 19 19 19 19 189 189 189 189 7 7 7 7 7 7 130 130 28
 28 61 187 187 187 187 187 96 96 96 19 19 19 19 19 19 189 189 189 137
 7 7 7 7 7 7 28 28 28 28 180 180 180 180 187 96 96 96 96 19
 19 242 242 19 137 137 137 137 137 137 7 7 7 7 7 214 28 28 28 180
 180 180 180 180 96 96 96 96 242 242 242 242 242 137 137 137 137 137 137 137
 7 7 7 214 214 214 28 28 180 180 180 180 180 96 96 96 96 176 177 177
 177 177 137 137 137 137 137 137 137 137 73 214 214 214 214 214 28 180 180 180
 180 180 88 41 41 41 114 177 177 177 177 137 137 137 137 137 137 137 137 137
 214 214 214 214 214 214 180 180 180 88 88 88 41 41 41 114 114 177 177 148
 148 137 137 137 137 137 137 137 214 214 214 214 214 214 214 178 178 178 88 88
 88 41 41 114 114 114 114 114 148 148 148 148 82 82 82 219 219 219 214 214
 80 80 80 98 178 178 178 88 88 88 41 41 114 114 114 114 114 148 148 148
 148 148 82 219 219 219 219 219 5 80 80 80 98 178 178 178 88 88 88 41
 114 114 114 114 114 114 148 148 148 148 165 165 219 219 219 219 219 5 80 80
 98 98 178 178 178 178 88 88 114 114 114 114 114 114 114 114 148 165 165 165
 165 219 219 219 219 219 5 80 98 98 98 178 178 178 178 25 25 114 114 114
 114 114 114 114 114 116 165 165 165 165 219 219 219 219 219 219 164 164 164 164
 178 178 178 51 25 25 25 114 114 114 114 114 195 116 116 116 165 165 165 165
 219 219 219 219 228 228 164 164 164 164 178 51 51 25 25 25 114 114 114 114
 195 195 116 116 116 116 165 165 165 165 228 228 228 228 228 228 164 164 164 16
 16 16 16 25 25 114 114 114 114 195 116 116 116 116 116 116 165 165 165 228
 228 228 228 228 140 140 140 16 16 16 16 16 16 16 63 114 85 85 85 85
 116 116 116 116 116 165 165 165 228 228 228 228 228 140 140 140 16 16 16 16
 16 16 16 63 85 85 85 85 85 115 116 116 116 116 68 68 68 228 228 228
 228 201 140 140 140 16 16 16 16 125 125 125 85 85 85 85 85 85 115 115
 115 116 116 68 68 68 68 228 228 228 201 201 201 201 125 125 125 125 125 125
 125 125 85 85 85 85 85 115 115 115 116 68 68 68 68 68 68 201 201 201
 201 201 201 125 125 125 125 125 125 125 125 85 85 85 85 85 115 115 115 115
 68 68 68 68 68 68 201 201 201 201 201 217 217 125 125 125 125 125 232 232
 85 85 85 85 85 115 115 76 76 76 76 68 17 17 17 17 201 201 201 201
 217 217 217 125 125 232 232 232 232 232 85 85 85 85 115 115 76 76 76 76
 76 17 17 17 17 201 149 149 149 217 217 217 232 232 232 232 232 232 232 108
 108 85 85 115 76 76 76 76 76 76 17 17 17 17 149 149 149 149 217 217
 217 232 232 232 232 232 232 232 108 108 108 108 76 76 76 76 76 76 76 17
 17 17 17 149 130 130 130 130 61 61 187 187 232 232 232 108 108 108 108 108
 108 108 128 128 128 128 128 11 11 17 17 17 130 130 130 130 130 61 61 187
 187 187 187 187 108 108 108 108 108 108 87 128 128 128 128 128 11 11 11 17
 130 130 130 130 130 130 61 61 61 187 187 187 187 187 108 108 108 19 87 87
 87 128 128 128 11 11 11 11 11 130 130 130 130 130 61 61 61 61 61 187
 187 187 187 134 19 19 19 87 87 87 222 222 222 222 11 11 7 7 7 130
 130 130 130 61 61 61 61 187 187 187 187 96 19 19 19 19 87 87 87 189
 189 189 222 11 7 7 7 7 130 130 130 130 61 61 61 187 187 187 187 96
 96 96 19 19 19 19 19 19 189 189 189 189 7 7 7 7 7 130 130 130
 130 28 61 61 187 187 187 96 96 96 96 96 19 19 19 19 15 15 189 189
 189 7 7 7 7 7 7 130 28 28 28 180 180 180 180 96 96 96 96 96
 96 19 19 19 15 15 15 137 137 137 137 7 7 7 7 7 214 28 28 28
 180 180 180 180 180 96 96 96 96 176 176 176 15 15 15 137 137 137 137 137
 137 7 7 7 214 214 214 28 28 180 180 180 180 180 96 96 96 96 176 176
 176 176 15 15 137 137 137 137 137 137 137 7 214 214 214 214 214 28 180 180
 180 180 180 88 41 41 41 176 176 176 177 137 137 137 137 137 137 137 137 137
 137 214 214 214 214 214 214 180 180 180 88 88 88 41 41 41 41 114 114 177
 148 148 82 82 82 82 82 137 137 214 214 214 5 5 5 5 178 178 88 88
 88 88 41 41 41 114 114 114 114 148 148 148 82 82 82 82 82 219 219 5
 5 5 5 5 5 178 178 178 88 88 88 41 41 41 114 114 114 114 148 148
 148 82 82 82 219 219 219 219 219 5 5 5 5 98 178 178 178 88 88 88
 41 41 114 114 114 114 114 114 148 148 148 165 165 219 219 219 219 219 5 5
 5 98 98 178 178 178 178 88 88 114 114 114 114 114 114 114 114 148 165 165
 165 165 219 219 219 219 219 5 5 98 98 98 178 178 178 103 103 103 114 114
 114 114 114 114 114 114 116 116 165 165 165 219 219 219 219 219 5 5 98 98
 98 178 178 178 103 103 103 114 114 114 114 114 114 114 116 116 116 116 165 165
 165 219 219 219 219 228 91 98 98 164 164 178 103 103 103 103 63 63 114 114
 114 114 116 116 116 116 116 116 165 165 165 219 228 228 228 91 91 91 164 164
 16 103 103 103 63 63 63 63 114 114 114 116 116 116 116 116 116 165 165 75
 75 228 228 228 91 91 91 91 16 16 16 16 16 63 63 63 63 63 85 85
 116 116 116 116 116 116 165 165 75 75 228 228 228 91 91 91 91 16 16 16
 16 16 16 63 63 63 85 85 85 85 115 116 116 116 116 116 68 68 75 228
 228 91 201 201 201 201 16 16 16 16 125 125 63 63 85 85 85 85 85 115
 115 115 116 116 68 68 68 68 228 91 91 201 201 201 201 125 125 125 125 125
 125 125 85 85 85 85 85 85 115 115 115 116 116 68 68 68 68 17 201 201
 201 201 201 201 201 125 125 125 125 125 125 85 85 85 85 85 85 115 115 115
 115 76 68 68 68 17 17 201 201 201 201 201 217 217 217 125 125 125 125 232
 232 85 85 85 85 85 115 115 76 76 76 76 17 17 17 17 17 201 201 201
 201 217 217 217 125 125 232 232 232 232 232 85 85 85 85 115 115 76 76 76
 76 17 17 17 17 17 201 149 149 149 217 217 217 217 232 232 232 232 232 108
 108 108 108 85 115 76 76 76 76 76 76 17 17 17 17 149 149 149 149 217
 217 217 217 232 232 232 232 232 108 108 108 108 108 108 128 128 76 76 76 76
 17 17 17 17 149 149 149 149 217 217 217 169 169 169 232 232 108 108 108 108
 108 143 143 128 128 128 128 128 11 11 17 17 17 130 130 130 130 130 61 61
 169 169 169 169 108 108 108 108 108 143 143 87 128 128 128 128 128 11 11 11
 17 130 130 130 130 130 130 61 61 169 169 169 169 169 108 108 108 108 143 87
 87 87 128 128 128 11 11 11 11 11 130 130 130 130 130 130 61 61 169 169
 169 169 169 134 134 134 134 87 87 87 87 128 128 128 11 11 11 11 7 130
 130 130 130 130 130 61 61 169 169 169 169 96 96 134 134 134 87 87 87 87
 189 189 189 189 11 11 7 7 7 130 130 130 130 130 61 61 169 169 187 96
 96 96 96 96 19 19 87 87 87 189 189 189 189 189 7 7 7 7 130 130
 130 130 130 61 61 169 169 96 96 96 96 96 96 19 19 15 15 15 15 189
 189 189 189 7 7 7 7 130 130 130 28 28 180 180 180 180 96 96 96 96
 96 96 176 176 15 15 15 15 15 189 137 137 7 7 7 7 130 214 28 28
 28 180 180 180 180 96 96 96 96 96 176 176 176 15 15 15 15 15 137 137
 137 137 7 7 7 214 214 214 28 28 180 180 180 180 96 96 96 96 176 176
 176 176 176 15 15 15 137 137 137 137 137 137 7 214 214 214 214 214 28 180
 180 180 180 88 96 41 41 176 176 176 176 176 15 15 15 82 82 82 82 137
 137 241 214 214 5 5 5 5 180 180 180 88 88 88 41 41 41 41 176 176
 176 15 15 82 82 82 82 82 82 241 241 5 5 5 5 5 5 5 178 88
 88 88 88 41 41 41 41 114 114 114 49 82 82 82 82 82 82 241 241 241
 241 5 5 5 5 5 178 178 178 88 88 88 41 41 41 41 114 114 114 49
 49 82 82 82 82 82 241 241 241 241 5 5 5 5 5 178 178 178 88 88
 88 41 41 41 114 114 114 114 49 49 49 107 107 107 241 241 241 241 241 5
 5 5 5 98 178 178 178 88 88 88 41 41 114 114 114 114 49 49 49 49
 107 107 107 241 241 241 241 241 5 5 5 98 98 178 178 178 103 103 103 114
 114 114 114 114 114 114 49 49 116 165 165 165 241 241 241 241 241 241 5 5
 98 98 178 178 103 103 103 103 63 63 114 114 114 114 114 116 116 116 116 165
 165 241 241 241 241 241 241 91 91 91 164 178 178 103 103 103 103 63 63 63
 63 114 114 114 116 116 116 116 116 165 165 75 75 75 241 91 91 91 91 91
 103 103 103 103 103 63 63 63 63 63 63 114 116 116 116 116 116 116 165 75
 75 75 75 91 91 91 91 91 91 91 103 103 16 63 63 63 63 63 63 63
 85 32 32 116 116 116 116 116 75 75 75 75 91 91 91 91 91 91 91 16
 16 90 90 90 63 63 63 63 85 85 32 32 32 116 116 116 116 75 75 75
 75 91 91 91 91 91 91 91 16 16 90 90 90 90 63 63 85 85 85 85
 115 115 115 116 116 135 135 135 75 91 91 91 201 201 201 201 201 125 125 90
 90 90 90 90 85 85 85 85 85 115 115 115 115 135 135 135 135 155 155 91
 91 201 201 201 201 201 125 125 90 90 90 94 94 85 85 85 85 85 115 115
 115 76 76 135 135 155 155 155 201 201 201 201 201 217 217 217 125 90 90 90
 94 94 85 85 85 85 85 115 115 76 76 76 76 17 17 17 17 17 201 201
 201 217 217 217 217 217 90 90 232 94 94 108 108 85 85 85 115 76 76 76
 76 76 17 17 17 17 17 201 149 149 149 217 217 217 217 232 232 232 232 108
 108 108 108 108 108 108 76 76 76 76 76 17 17 17 17 17 149 149 149 149
 217 217 217 217 232 232 232 232 108 108 108 108 108 108 108 128 128 128 128 128
 128 17 17 17 17 149 130 149 217 217 217 217 169 169 169 169 108 108 108 108
 108 108 143 143 128 128 128 128 128 11 11 17 17 17 130 130 130 130 130 217
 169 169 169 169 169 169 108 108 108 108 143 143 143 128 128 128 128 128 11 11
 11 17 130 130 130 130 130 130 61 169 169 169 169 169 169 134 134 134 143 143
 143 87 87 128 128 128 11 11 11 11 11 130 130 130 130 130 130 61 169 169
 169 169 169 169 134 134 134 134 143 87 87 87 128 128 128 11 11 11 11 11
 130 130 130 130 130 130 61 169 169 169 169 169 169 134 134 134 134 134 87 87
 87 189 189 189 189 11 11 11 7 130 130 130 130 130 130 61 169 169 169 169
 96 96 96 96 96 134 134 87 87 15 189 189 189 189 189 7 7 7 130 130
 130 130 130 130 61 169 169 169 96 96 96 96 96 96 96 15 15 15 15 15
 189 189 189 189 7 7 7 7 130 130 130 130 28 180 180 180 169 96 96 96
 96 96 96 176 176 15 15 15 15 15 15 239 239 7 7 7 7 130 5 5
 28 28 180 180 180 180 96 96 96 96 96 176 176 176 15 15 15 15 15 15
 15 137 137 7 7 39 130 5 5 28 28 180 180 180 180 96 96 96 96 176
 176 176 176 15 15 15 15 15 15 82 82 82 82 39 39 214 5 5 5 28
 180 180 180 88 88 41 41 41 192 176 176 176 15 15 15 15 82 82 82 82
 82 82 241 241 214 5 5 5 5 5 180 88 88 88 41 41 41 192 192 192
 192 122 15 15 82 82 82 82 82 82 241 241 241 5 5 5 5 5 5 178
 88 88 88 88 41 41 41 192 122 122 122 122 15 107 82 82 82 107 241 241
 241 241 5 5 5 5 5 178 178 178 88 88 88 41 41 41 41 122 122 122
 49 49 107 107 107 107 107 241 241 241 241 5 5 5 5 5 178 178 178 88
 88 88 41 41 41 114 114 122 49 49 49 49 107 107 107 37 241 241 241 241
 5 5 5 5 5 178 178 178 88 88 88 41 41 114 114 114 49 49 49 49
 49 107 107 107 37 241 241 241 241 241 5 5 5 98 178 178 178 103 103 103
 63 63 114 114 114 49 49 49 49 49 107 107 37 37 241 241 241 241 241 5
 5 5 98 178 178 103 103 103 103 63 63 63 63 114 114 49 49 49 49 116
 165 37 37 241 241 241 241 241 91 91 91 91 18 103 103 103 103 63 63 63
 63 63 63 114 49 116 116 116 116 116 75 75 75 75 75 241 91 91 91 91
 91 18 18 103 103 103 63 63 63 63 63 63 32 32 32 32 116 116 116 75
 75 75 75 75 75 91 91 91 91 91 91 18 18 103 63 63 63 63 63 63
 63 32 32 32 32 32 116 116 116 75 75 75 75 91 91 91 91 91 91 91
 18 90 90 90 90 63 63 63 63 63 32 32 32 32 32 116 116 135 135 75
 75 75 91 91 91 91 91 91 91 18 90 90 90 90 90 90 63 63 85 32
 32 32 32 32 32 135 135 135 135 75 75 91 91 91 91 91 91 91 90 90
 90 90 90 90 90 90 85 85 85 32 32 32 32 32 135 135 135 135 155 155
 91 91 201 201 201 201 201 201 90 90 90 90 94 94 94 85 85 85 85 115
 115 115 163 135 135 135 155 155 155 155 201 201 201 201 217 217 217 90 90 90
 90 94 94 94 101 101 101 101 101 163 163 163 163 155 155 155 155 155 155 201
 201 201 217 217 217 217 217 90 90 90 94 94 108 108 108 101 101 163 163 163
 163 163 76 17 17 17 17 17 201 149 149 217 217 217 217 217 90 232 90 232
 108 108 108 108 108 108 163 163 163 128 128 128 17 17 17 17 17 149 149 149
 217 217 217 217 217 217 232 232 108 108 108 108 108 108 143 143 128 128 128 128
 128 128 17 17 17 17 149 117 117 217 217 217 217 169 169 169 120 120 108 108
 108 108 143 143 143 163 128 128 128 128 11 11 17 17 17 117 117 117 117 117
 217 169 169 169 169 120 120 108 108 108 143 143 143 143 128 128 128 128 128 11
 11 11 17 117 117 117 117 117 117 117 169 169 169 169 120 120 134 134 134 143
 143 143 143 128 128 128 128 11 11 11 11 11 117 117 117 117 117 117 117 169
 169 169 169 169 120 134 134 134 134 143 143 143 128 128 128 128 11 11 11 11
 11 117 117 117 117 117 117 117 169 169 169 169 120 120 134 134 134 134 134 87
 87 87 189 189 189 11 11 11 11 7 117 117 117 117 117 117 117 169 169 169
 169 120 96 96 134 134 134 134 87 87 15 239 239 189 189 189 239 7 7 117
 117 117 117 117 117 185 169 169 169 169 96 96 96 96 96 134 134 15 15 15
 15 239 239 239 239 239 7 7 210 117 117 117 185 185 185 185 185 169 96 96
 96 96 96 96 176 176 15 15 15 15 15 239 239 239 239 239 210 210 210 185
 185 185 185 185 185 185 185 96 96 96 96 96 176 176 176 15 15 15 15 15
 239 239 239 239 239 39 39 39 185 185 185 185 185 185 185 185 59 96 96 96
 192 176 176 176 15 15 15 15 15 15 239 239 239 39 39 39 39 5 5 185
 185 185 185 185 88 88 41 41 192 192 192 192 176 15 15 15 15 15 82 82
 82 82 241 241 39 39 5 5 5 185 185 185 79 88 88 41 41 192 192 192
 192 192 15 15 15 15 107 107 107 107 241 241 241 241 241 5 5 5 5 5
 79 79 88 88 41 41 41 192 192 192 122 122 122 15 107 107 107 107 107 241
 241 241 241 241 5 5 5 5 5 100 100 88 88 41 41 41 41 192 122 122
 122 49 49 107 107 107 107 107 241 241 241 241 241 5 5 5 5 5 100 100
 100 100 41 41 41 41 41 122 122 49 49 49 49 107 107 107 37 37 241 241
 241 241 5 5 5 5 5 100 100 100 100 41 41 41 41 114 114 49 49 49
 49 49 107 107 37 37 37 241 241 241 241 5 5 5 5 100 100 100 100 100
 63 63 63 63 63 114 49 49 49 49 49 107 107 37 37 37 241 241 241 241
 5 91 91 18 18 199 199 199 103 63 63 63 63 63 63 49 49 49 49 49
 116 165 37 37 37 241 241 241 241 91 91 91 18 18 18 199 199 199 63 63
 63 63 63 63 49 49 49 49 116 116 116 75 75 75 75 75 75 91 91 91
 91 91 18 18 199 199 199 63 63 63 63 63 63 32 32 32 32 32 32 116
 75 75 75 75 75 75 91 91 91 91 91 18 18 18 199 199 63 63 63 63
 63 63 32 32 32 32 32 32 135 135 75 75 75 75 75 91 91 91 91 91
 18 18 18 90 90 90 63 63 63 63 63 32 32 32 32 32 32 135 135 135
 75 75 75 91 91 91 91 91 91 18 18 90 90 90 90 90 90 63 63 63
 32 32 32 32 32 32 135 135 135 135 135 135 91 91 91 91 91 91 91 90
 90 90 90 90 90 90 90 101 101 101 32 32 32 32 135 135 135 135 135 135
 155 155 91 201 201 201 201 217 90 90 90 90 90 90 90 90 101 101 101 101
 101 163 163 163 135 135 135 155 155 155 155 201 201 201 217 217 217 217 90 90
 90 90 90 90 90 101 101 101 101 101 163 163 163 163 135 135 155 155 155 155
 201 201 201 217 217 217 217 217 90 90 90 90 90 101 101 101 101 101 163 163
 163 163 163 163 155 155 155 155 155 201 149 149 217 217 217 217 217 90 90 90
 90 108 108 108 108 101 101 163 163 163 163 163 128 17 17 17 17 17 149 149
 149 217 217 217 217 217 217 90 90 108 108 108 108 108 143 143 163 163 163 163
 128 128 128 17 17 17 17 149 117 117 117 217 217 204 204 169 120 120 120 120
 108 143 143 143 143 143 163 163 163 128 128 11 11 17 209 117 117 117 117 117
 117 117 169 169 169 120 120 120 120 108 143 143 143 143 143 163 128 128 128 128
 11 11 209 209 117 117 117 117 117 117 117 169 169 169 169 120 120 120 134 134
 143 143 143 143 128 128 128 128 128 11 11 11 209 117 117 117 117 117 117 117
 169 169 169 169 120 120 120 134 134 134 143 143 143 143 128 128 128 128 11 11
 11 117 117 117 117 117 117 117 117 169 169 169 120 120 120 120 134 134 134 134
 143 87 87 239 239 239 239 11 11 11 117 117 117 117 117 117 117 117 169 169
 169 120 120 120 120 134 134 134 134 118 118 239 239 239 239 239 239 239 239 210
 117 117 117 117 117 117 185 185 169 169 120 120 96 96 96 96 134 118 118 118
 15 239 239 239 239 239 239 239 210 210 117 117 117 185 185 185 185 227 59 96
 96 96 96 96 96 176 15 15 15 15 15 239 239 239 239 239 239 210 210 210
 185 185 185 185 185 185 185 59 59 96 96 96 96 176 176 176 15 15 15 15
 239 239 239 239 239 39 39 39 39 185 185 185 185 185 185 185 59 59 205 96
 192 192 192 192 192 15 15 15 15 15 239 239 239 239 39 39 39 39 185 185
 185 185 185 185 79 59 205 205 192 192 192 192 192 192 15 15 15 15 15 239
 239 239 239 39 39 39 39 5 185 185 185 185 79 79 79 205 71 71 192 192
 192 192 192 192 15 15 15 107 107 107 107 241 241 241 241 39 5 5 5 5
 79 79 79 79 88 71 71 71 192 192 192 122 122 122 15 107 107 107 107 107
 241 241 241 241 241 5 5 5 5 79 100 100 100 100 71 71 71 71 71 122
 122 122 49 49 107 107 107 107 107 241 241 241 241 241 5 5 5 5 100 100
 100 100 100 100 71 71 71 71 122 122 49 49 49 49 107 107 107 37 37 241
 241 241 241 5 5 5 5 100 100 100 100 100 100 71 71 71 71 114 49 49
 49 49 49 107 107 37 37 37 241 241 241 241 5 5 5 100 100 100 100 100
 100 100 63 63 63 63 63 49 49 49 49 49 107 107 37 37 37 241 241 241
 241 91 91 91 18 18 199 199 199 199 63 63 63 63 63 63 49 49 49 49
 49 107 107 37 37 37 241 241 241 241 91 91 91 18 18 18 199 199 199 63
 63 63 63 63 63 63 49 49 49 224 224 116 37 37 75 75 75 75 91 91
 91 91 18 18 18 199 199 199 63 63 63 63 63 63 32 32 32 32 32 32
 135 75 75 75 75 75 75 91 91 91 91 91 18 18 18 199 199 63 63 63
 63 63 63 32 32 32 32 32 32 135 135 135 75 75 75 75 91 91 91 91
 91 18 18 18 199 94 90 63 63 63 63 63 32 32 32 32 32 32 135 135
 135 135 75 75 91 91 91 91 91 91 18 18 18 94 94 90 90 90 63 63
 32 32 32 32 32 32 135 135 135 135 135 135 135 91 91 91 91 91 91 18
 18 90 90 90 90 90 90 90 101 101 101 101 32 32 32 135 135 135 135 135
 135 135 135 91 201 201 201 91 217 204 90 90 90 90 90 90 90 101 101 101
 101 101 163 163 163 135 135 135 135 155 155 155 201 201 201 217 217 217 204 90
 90 90 90 90 90 90 101 101 101 101 101 163 163 163 163 135 135 155 155 155
 155 201 201 201 217 217 217 217 204 90 90 90 90 90 101 101 101 101 101 163
 163 163 163 163 163 155 155 155 155 155 201 149 149 217 217 217 204 204 204 204
 90 90 90 101 101 101 101 101 163 163 163 163 163 163 163 155 155 155 155 149
 149 149 217 217 217 217 204 204 204 90 108 108 108 108 143 143 143 163 163 163
 163 163 163 128 17 17 17 17 149 117 117 117 117 204 204 204 204 120 120 120
 120 143 143 143 143 143 163 163 163 163 163 128 209 209 209 209 209 117 117 117
 117 117 117 204 204 169 120 120 120 120 193 143 143 143 143 143 163 163 163 163
 128 209 209 209 209 117 117 117 117 117 117 117 169 169 169 120 120 120 120 193
 193 143 143 143 143 163 128 128 128 128 209 209 209 209 117 117 117 117 117 117
 117 169 169 169 120 120 120 120 193 193 193 143 143 143 143 128 128 128 128 11
 209 209 209 117 117 117 117 117 117 117 169 169 169 120 120 120 120 193 193 193
 193 143 118 118 239 239 239 239 239 239 209 117 117 117 117 117 117 117 117 169
 169 120 120 120 120 120 193 193 193 118 118 118 118 239 239 239 239 239 239 210
 210 117 117 117 117 117 117 185 185 227 120 120 120 120 120 193 193 118 118 118
 118 118 239 239 239 239 239 239 210 210 210 210 117 185 185 185 185 185 227 59
 59 96 96 96 96 193 118 118 118 118 118 239 239 239 239 239 239 210 210 210
 210 39 185 185 185 185 185 227 59 59 205 205 96 96 176 118 118 118 118 118
 239 239 239 239 239 239 39 39 39 39 39 185 185 185 185 227 227 59 59 205
 205 192 192 192 192 192 15 15 15 15 239 239 239 239 239 39 39 39 39 39
 185 185 185 185 79 79 59 205 205 205 192 192 192 192 192 144 15 15 15 239
 239 239 239 39 39 39 39 39 2 185 185 185 79 79 79 79 205 205 205 71
 192 192 192 192 144 144 15 15 107 107 107 107 39 39 39 39 39 2 2 2
 79 79 79 79 79 205 205 71 71 71 192 192 122 122 144 144 107 107 107 107
 107 241 241 241 241 2 2 2 2 2 79 79 100 100 100 71 71 71 71 71
 122 122 122 49 49 107 107 107 107 107 241 241 241 241 2 2 2 2 2 79
 100 100 100 100 100 71 71 71 71 122 122 49 49 49 49 213 213 37 37 37
 241 241 241 241 2 2 2 2 100 100 100 100 100 100 71 71 71 71 113 49