# vtk DataFile Version 2.0
Data set from ImportExport Version 6.5.171.b0b162591
ASCII

DATASET RECTILINEAR_GRID
DIMENSIONS 30 30 30
X_COORDINATES 30 float
-1.250000 1.250000 3.750000 6.250000 8.750000 11.250000 13.750000 16.250000 18.750000 21.250000 23.750000 26.250000 28.750000 31.250000 33.750000 36.250000 38.750000 41.250000 43.750000 46.250000 48.750000 
51.250000 53.750000 56.250000 58.750000 61.250000 63.750000 66.250000 68.750000 71.250000 
Y_COORDINATES 30 float
-1.250000 1.250000 3.750000 6.250000 8.750000 11.250000 13.750000 16.250000 18.750000 21.250000 23.750000 26.250000 28.750000 31.250000 33.750000 36.250000 38.750000 41.250000 43.750000 46.250000 48.750000 
51.250000 53.750000 56.250000 58.750000 61.250000 63.750000 66.250000 68.750000 71.250000 
Z_COORDINATES 30 float
-1.250000 1.250000 3.750000 6.250000 8.750000 11.250000 13.750000 16.250000 18.750000 21.250000 23.750000 26.250000 28.750000 31.250000 33.750000 36.250000 38.750000 41.250000 43.750000 46.250000 48.750000 
51.250000 53.750000 56.250000 58.750000 61.250000 63.750000 66.250000 68.750000 71.250000 
CELL_DATA 24389
SCALARS FeatureIds int 1
LOOKUP_TABLE default
 104 104 104 104 104 104 104 114 114 85 85 85 85 85 85 243 243 243 243 93
 93 93 203 203 54 54 54 54 54 104 104 104 104 104 104 104 104 114 85 85
 85 85 85 243 243 243 243 243 93 93 93 203 54 54 54 54 54 54 22 22
 22 22 104 104 104 104 104 85 85 85 85 85 85 243 243 243 243 93 93 93
 93 54 54 54 54 54 54 22 22 22 22 22 22 104 104 139 139 85 85 85
 85 243 243 243 243 243 93 93 93 93 37 37 37 37 37 37 22 22 22 22
 22 22 22 139 139 139 139 85 85 85 161 161 161 161 161 161 248 248 248 37
 37 37 37 37 37 22 22 22 22 22 22 22 139 139 139 139 33 33 168 161
 161 161 161 161 175 248 248 248 37 37 37 37 37 6 6 22 22 22 22 22
 22 139 139 139 139 33 168 168 168 175 175 175 175 175 248 248 248 248 37 37
 6 6 6 6 22 22 22 22 22 199 199 139 139 139 168 168 168 168 175 175
 175 175 175 248 248 248 233 233 6 6 6 6 6 22 22 22 22 199 199 199
 199 199 199 168 168 168 168 175 175 175 175 248 248 248 233 233 233 233 6 6
 6 6 6 22 22 199 199 199 199 199 199 199 94 94 94 189 189 175 175 175
 248 248 233 233 233 233 233 233 6 6 6 6 22 22 199 199 199 199 199 165
 165 94 94 94 94 189 189 189 175 248 233 233 233 233 233 233 233 172 6 6
 6 22 22 199 199 199 199 199 43 43 94 94 94 94 189 189 189 95 95 202
 202 233 233 233 233 233 172 6 6 30 129 173 173 199 199 199 43 43 43 94
 94 94 94 189 189 189 95 95 95 202 233 233 233 233 233 172 6 30 30 129
 129 129 129 199 43 43 43 34 34 94 94 189 189 189 95 95 95 95 95 233
 233 233 67 67 67 67 30 30 129 129 129 129 129 184 184 34 34 34 34 34
 189 189 189 95 95 95 95 95 95 73 73 73 73 73 73 30 30 129 129 129
 129 129 184 184 34 34 34 34 34 34 189 189 95 95 95 95 95 73 73 73
 73 73 73 73 30 30 129 129 129 129 129 121 184 34 34 34 34 66 66 66
 189 95 95 95 95 73 73 73 73 73 73 73 30 30 30 129 129 129 129 121
 121 121 34 66 66 66 66 66 66 212 212 212 212 212 73 73 73 73 73 73
 73 30 30 30 129 129 129 129 121 121 121 121 66 66 66 66 66 66 212 212
 212 212 212 212 73 73 73 73 73 73 30 30 129 129 129 129 121 121 121 121
 121 121 66 66 66 211 211 212 212 212 212 212 212 73 73 73 73 73 73 30
 30 129 129 129 129 121 121 121 121 121 121 66 211 211 211 211 212 212 212 212
 212 212 74 73 73 73 73 73 30 44 44 44 44 44 240 240 121 121 65 65
 65 211 211 211 211 211 212 212 212 28 28 108 108 108 13 13 13 13 44 44
 44 44 44 240 240 65 65 65 65 65 211 211 211 211 211 190 28 28 28 28
 108 108 108 13 13 13 13 44 44 44 44 44 240 240 65 65 65 65 65 211
 211 211 211 211 190 28 28 28 28 108 108 108 13 13 13 13 44 44 44 44
 44 240 240 65 65 65 65 65 211 211 211 211 211 28 28 28 28 28 28 108
 108 13 13 13 13 44 44 44 44 240 240 70 114 65 65 65 65 211 211 211
 211 211 28 28 28 28 28 28 28 203 13 13 13 13 44 44 44 70 70 70
 70 114 114 114 114 114 211 211 211 211 237 237 237 237 28 28 28 203 203 203
 13 13 13 70 70 70 70 70 70 114 114 114 114 114 114 85 85 85 243 243
 237 237 237 237 28 203 203 203 203 203 203 203 70 70 70 70 70 70 114 114
 114 114 85 85 85 85 85 243 243 243 243 237 237 28 203 203 203 54 54 54
 54 82 82 82 132 132 132 114 114 114 114 85 85 85 85 243 243 243 243 243
 93 93 93 203 203 203 54 54 54 54 82 82 82 132 132 132 132 132 114 85
 85 85 85 85 243 243 243 207 243 93 93 93 203 54 54 54 54 54 54 22
 22 22 132 132 132 132 132 132 85 85 85 85 85 243 243 243 243 243 93 93
 93 93 54 54 54 54 54 54 22 22 22 22 22 22 22 22 139 139 85 85
 85 85 243 243 243 243 243 93 93 93 37 37 37 37 37 37 37 22 22 22
 22 22 22 22 22 139 139 139 85 85 161 161 161 161 161 161 161 248 248 248
 37 37 37 37 37 37 22 22 22 22 22 22 22 139 139 139 139 33 33 168
 161 161 161 161 161 161 248 248 248 37 37 37 37 6 6 6 22 22 22 22
 22 22 194 194 194 194 194 168 168 175 175 175 175 175 248 248 248 248 248 37
 37 6 6 6 6 22 22 22 22 22 199 199 194 194 194 194 168 168 175 175
 175 175 175 248 248 248 248 233 233 37 6 6 6 6 22 22 22 22 199 199
 199 199 199 194 194 94 168 175 175 175 175 175 248 248 248 233 233 233 233 6
 6 6 6 22 22 22 22 199 199 199 199 199 194 94 94 94 94 175 175 175
 175 248 248 233 233 233 233 233 233 6 6 6 22 22 22 199 199 199 199 199
 199 199 94 94 94 94 94 189 175 175 248 233 233 233 233 233 233 233 172 6
 6 22 22 87 87 87 87 87 87 87 43 94 94 94 94 94 189 189 95 95
 95 233 233 233 233 233 233 233 6 6 30 173 173 173 87 87 87 87 87 43
 94 94 94 94 94 189 95 95 95 95 95 233 233 233 233 233 233 151 30 30
 30 129 173 87 87 87 184 184 34 34 94 94 94 94 189 95 95 95 95 95
 233 233 233 67 73 20 20 30 30 30 129 129 129 184 184 184 34 34 34 34
 34 94 94 95 95 95 95 95 95 95 73 73 73 73 73 20 30 30 30 129
 129 129 184 184 184 34 34 34 34 34 34 34 95 95 95 95 95 95 73 73
 73 73 73 73 73 30 30 30 129 129 129 121 184 184 34 34 34 34 34 34
 34 208 212 212 212 212 73 73 73 73 73 73 73 30 30 30 30 129 129 129
 121 121 121 34 34 34 34 34 34 208 212 212 212 212 212 212 73 73 73 73
 73 73 30 30 30 129 129 129 121 121 121 121 121 121 66 66 66 208 212 212
 212 212 212 212 212 73 73 73 73 73 73 30 30 30 129 129 129 121 121 121
 121 121 121 66 66 66 198 212 212 212 212 212 212 212 74 74 73 73 73 73
 30 30 30 129 129 121 121 121 121 121 121 121 121 211 211 190 212 212 212 212
 212 212 212 74 74 74 73 73 73 30 44 44 44 44 44 240 240 121 121 65
 65 65 211 211 190 190 190 212 212 212 212 212 108 108 108 108 108 13 13 44
 44 44 44 44 240 240 65 65 65 65 65 211 211 190 190 190 190 212 28 28
 28 108 108 108 108 108 13 13 44 44 44 44 44 240 240 78 65 65 65 65
 211 211 190 190 190 190 28 28 28 28 108 108 108 108 13 13 13 44 44 44
 44 240 240 240 78 65 65 65 65 211 211 190 190 190 190 28 28 28 28 28
 108 108 108 13 13 13 44 44 44 44 240 240 114 114 65 65 65 65 211 211
 190 190 190 28 28 28 28 28 28 28 203 203 13 13 13 44 44 44 70 70
 70 114 114 114 114 114 65 211 211 190 190 237 237 237 237 28 28 28 203 203
 203 203 203 203 70 70 70 70 70 70 114 114 114 114 114 114 85 85 243 243
 237 237 237 237 237 28 203 203 203 203 203 203 203 70 70 70 70 70 70 114
 114 114 114 114 85 85 85 243 243 243 243 237 237 237 28 203 203 203 203 203
 203 203 82 82 82 82 132 132 132 114 114 114 85 85 85 146 243 243 243 243
 243 93 93 93 203 203 203 203 54 54 68 82 82 82 82 132 132 132 132 114
 114 85 85 85 146 243 243 243 243 243 93 93 93 203 203 203 203 54 54 68
 82 82 82 82 132 132 132 132 132 85 85 85 85 146 243 243 243 243 243 93
 93 93 93 37 37 37 37 37 68 22 22 22 22 22 132 132 132 132 139 85
 85 85 146 140 140 140 140 140 140 93 93 93 37 37 37 37 37 37 22 22
 22 22 22 22 22 22 139 139 194 194 85 140 140 140 140 140 140 140 248 248
 248 37 37 37 37 37 37 22 22 22 22 22 22 22 194 194 194 194 194 194
 161 161 161 161 161 161 161 248 248 248 37 37 37 37 6 6 6 22 22 22
 22 22 22 194 194 194 194 194 194 175 175 175 175 175 175 248 248 248 248 248
 37 37 6 6 6 6 22 22 22 22 22 199 194 194 194 194 194 194 175 175
 175 175 175 175 248 248 248 248 233 233 233 6 6 6 6 22 22 22 22 199
 199 199 199 194 194 194 194 175 175 175 175 175 175 248 248 248 233 233 233 233
 6 6 6 6 6 22 22 173 199 199 199 199 199 194 194 94 94 94 175 175
 175 175 248 248 233 233 233 233 233 233 6 6 6 6 173 173 173 199 87 87
 199 199 194 94 94 94 94 94 175 175 175 248 233 233 233 233 233 233 233 6
 6 6 6 173 173 173 87 87 87 87 87 87 94 94 94 94 94 189 95 95
 95 95 233 233 233 233 233 233 233 151 20 20 173 173 173 87 87 87 87 87
 87 94 94 94 94 94 94 95 95 95 95 95 233 233 233 233 233 20 151 20
 20 173 173 173 87 87 87 35 35 34 34 94 94 94 94 95 95 95 95 95
 95 233 233 233 233 20 20 20 30 30 30 129 129 184 184 184 184 184 34 34
 34 34 94 94 95 95 95 95 95 95 95 73 73 73 20 20 20 30 30 30
 129 129 129 184 184 184 184 34 34 34 34 34 208 95 95 95 95 95 95 73
 73 73 73 73 73 20 30 30 30 129 129 129 184 184 184 184 34 34 34 34
 34 208 208 212 212 212 212 212 73 73 73 73 73 73 30 30 30 30 129 129
 121 121 121 184 184 34 34 34 34 208 208 212 212 212 212 212 212 73 73 73
 73 73 73 30 30 30 30 129 129 121 121 121 121 121 34 34 34 34 208 212
 212 212 212 212 212 212 74 74 73 73 73 73 30 30 30 129 129 121 121 121
 121 121 121 121 66 34 198 198 212 212 212 212 212 212 212 74 74 74 73 73
 73 30 30 30 129 129 121 121 121 121 121 121 121 65 65 190 190 212 212 212
 212 212 212 212 74 74 74 74 73 73 30 44 44 44 44 44 240 121 121 121
 65 65 65 65 190 190 190 190 212 212 212 212 212 74 74 74 108 108 73 30
 44 44 44 44 44 240 78 78 65 65 65 65 65 190 190 190 190 190 212 212
 28 28 108 108 108 108 108 13 13 44 44 44 44 44 240 78 78 65 65 65
 65 211 190 190 190 190 190 28 28 28 28 108 108 108 108 13 13 13 44 44
 44 44 240 240 78 78 78 65 65 65 65 190 190 190 190 190 28 28 28 28
 28 108 108 108 108 13 13 44 44 44 44 240 70 114 114 65 65 65 65 65
 190 190 190 190 190 28 28 28 28 28 28 203 203 203 13 214 44 44 44 70
 70 70 114 114 114 114 114 65 65 190 190 190 190 237 237 28 28 28 28 203
 203 203 203 203 203 68 70 70 70 70 70 114 114 114 114 114 114 85 85 243
 243 237 237 237 237 28 28 203 203 203 203 203 203 68 68 70 70 70 70 70
 114 114 114 114 114 85 85 85 243 243 243 243 237 237 237 28 203 203 203 203
 203 203 68 82 82 82 82 132 132 132 132 114 114 146 146 146 146 56 56 243
 243 243 93 93 93 203 203 203 203 68 68 68 82 82 82 82 132 132 132 132
 132 132 146 146 146 146 56 56 140 243 243 93 93 93 203 203 203 37 68 68
 68 82 82 82 82 132 132 132 132 132 158 146 146 146 146 56 140 140 140 140
 93 93 93 93 229 229 37 37 68 68 82 82 82 82 132 132 132 132 158 158
 158 146 146 146 56 140 140 140 140 140 93 93 178 37 37 37 37 37 68 252
 22 22 22 22 22 22 158 158 158 158 158 146 146 140 140 140 140 140 140 140
 248 178 37 37 37 37 37 6 252 252 22 22 22 22 22 194 194 194 194 194
 194 154 140 140 140 140 140 140 248 248 178 178 37 37 37 6 6 6 22 22
 22 22 22 22 194 194 194 194 194 194 194 175 175 175 175 175 248 248 248 248
 178 178 37 6 6 6 6 22 22 22 22 22 199 194 194 194 194 194 18 18
 175 175 175 175 175 248 248 248 248 178 178 233 6 6 6 6 22 22 22 22
 199 199 194 194 194 194 18 18 18 175 175 175 175 175 248 248 248 233 233 233
 233 6 6 6 6 6 173 173 173 173 87 87 199 194 18 18 18 18 94 175
 175 175 175 248 233 233 233 233 233 233 233 6 6 6 173 173 173 173 173 87
 87 87 87 18 18 18 94 94 94 175 175 175 233 233 233 233 233 233 233 233
 151 151 151 151 173 173 173 173 87 87 87 87 18 18 94 94 94 94 189 95
 95 95 95 233 233 233 233 233 151 151 151 20 20 173 173 173 173 87 87 87
 87 87 94 94 94 94 94 94 95 95 95 95 95 233 233 233 233 151 151 151
 20 20 173 173 173 173 87 87 184 35 35 184 94 94 94 142 95 95 95 95
 95 95 233 233 233 20 20 20 20 20 20 173 173 173 173 184 184 184 35 184
 34 34 34 142 142 95 95 95 95 95 95 53 53 20 20 20 20 20 20 30
 30 129 9 9 184 184 184 35 184 34 34 34 208 208 208 95 95 95 95 95
 53 53 73 20 20 20 20 30 30 30 129 9 9 9 184 184 35 184 34 34
 34 208 208 208 212 212 212 212 212 53 53 73 73 73 20 20 30 30 30 9
 9 9 9 9 35 35 184 34 34 208 208 208 208 212 212 212 212 212 53 53
 73 73 73 73 30 30 30 30 9 9 9 9 9 9 9 9 34 34 208 208
 208 198 212 212 212 212 212 74 74 74 73 73 73 30 30 30 129 9 9 9
 121 121 9 9 9 9 198 198 198 198 198 212 212 212 212 212 74 74 74 74
 73 73 30 30 24 24 24 9 9 121 121 121 121 121 65 198 198 198 198 198
 212 212 212 212 212 74 74 74 74 73 73 30 24 24 24 24 24 78 78 78
 121 65 65 65 65 109 109 109 190 212 212 212 212 212 74 74 74 74 108 73
 86 24 24 24 24 24 78 78 78 78 65 65 65 190 190 190 190 190 50 50
 212 212 28 108 108 108 108 108 108 86 24 24 24 24 240 78 78 78 78 65
 65 65 65 190 190 190 190 50 50 50 28 28 108 108 108 108 108 108 108 24
 24 24 24 240 240 78 78 78 78 65 65 190 190 190 190 190 50 50 28 28
 245 245 108 108 108 108 214 214 24 24 24 24 240 70 114 78 78 65 65 65
 190 190 190 190 190 50 28 28 245 245 245 28 203 203 214 214 214 24 24 24
 70 70 70 114 114 114 114 65 65 190 190 190 190 190 237 237 28 245 245 28
 28 203 203 203 214 214 68 70 70 70 70 70 114 114 114 114 114 114 146 146
 56 243 243 237 237 237 28 28 28 203 203 203 203 68 68 68 82 82 132 132
 132 132 114 114 114 114 114 146 146 56 243 243 243 243 237 28 28 203 203 203
 203 203 68 68 68 68 82 82 132 132 132 132 132 132 146 146 146 146 56 56
 56 140 215 215 215 215 215 203 229 229 68 68 68 68 68 82 82 132 132 132
 132 132 132 146 146 146 146 56 56 56 140 140 215 215 215 215 229 229 229 68
 68 68 68 82 82 82 132 132 132 132 132 158 146 146 146 146 56 56 140 140
 140 140 215 215 215 229 229 229 229 68 68 252 252 82 82 132 132 132 132 158
 158 158 146 146 146 56 56 140 140 140 140 215 215 178 229 229 229 229 229 68
 252 252 252 22 22 22 132 158 158 158 158 158 146 146 56 140 140 140 140 140
 140 178 178 178 229 229 229 229 252 252 252 252 22 22 22 22 158 158 158 158
 158 158 154 154 140 140 140 140 140 248 178 178 178 178 178 229 6 252 252 252
 252 22 22 22 194 194 194 194 194 194 194 154 175 175 145 145 145 145 248 178
 178 178 178 178 6 6 252 252 252 252 22 22 173 194 194 194 194 194 18 18
 18 18 145 145 145 145 145 248 178 178 178 178 178 6 6 6 252 252 252 22
 173 173 173 194 194 194 18 18 18 18 18 175 145 145 145 145 248 178 178 178
 178 178 6 6 6 6 252 173 173 173 173 173 87 87 18 18 18 18 18 18
 175 175 145 145 145 233 233 233 178 178 178 151 151 151 151 151 173 173 173 173
 173 87 87 87 18 18 18 18 94 94 175 145 145 233 233 233 233 233 233 233
 151 151 151 151 151 173 173 173 173 173 87 87 87 18 18 18 18 142 142 142
 144 95 95 95 233 233 233 233 151 151 151 151 151 151 173 173 173 173 173 87
 87 87 18 18 142 142 142 142 142 95 95 95 95 95 233 233 233 151 151 151
 151 20 20 173 173 173 173 173 87 184 184 184 184 142 142 142 142 142 95 95
 95 95 95 233 185 20 20 20 20 20 20 20 173 173 173 173 173 184 184 184
 184 184 142 142 142 142 208 208 95 95 95 95 53 53 20 20 20 20 20 20
 20 30 9 9 9 9 184 184 184 184 184 184 208 208 208 208 208 95 212 95
 53 53 53 53 20 20 20 20 20 30 30 9 9 9 9 9 184 184 184 184
 184 208 208 208 208 208 212 212 212 53 53 53 53 53 20 20 20 30 30 30
 9 9 9 9 9 9 35 35 184 184 208 208 208 208 208 212 212 212 53 53
 53 53 53 20 20 20 30 30 9 9 9 9 9 9 9 9 9 184 208 208
 208 208 198 212 212 212 212 212 53 53 53 53 73 73 30 86 86 9 9 9
 9 9 9 9 9 9 9 198 198 198 198 198 212 212 212 212 212 74 74 74
 74 73 73 86 86 24 24 24 9 9 9 9 9 9 9 9 198 198 198 198
 198 212 212 212 212 212 74 74 74 74 74 74 86 24 24 24 24 24 9 9
 9 9 9 65 65 109 109 109 109 109 50 212 212 212 212 74 74 74 74 74
 86 86 24 24 24 24 24 78 78 78 78 78 65 65 190 190 190 190 50 50
 50 50 212 212 108 108 108 108 108 86 86 24 24 24 24 24 24 78 78 78
 78 65 65 190 190 190 190 50 50 50 50 28 28 108 108 108 108 108 214 214
 24 24 24 24 24 24 78 78 78 78 65 65 190 190 190 190 50 50 50 50
 245 245 245 108 108 108 214 214 214 24 24 24 24 24 24 78 78 78 78 65
 65 190 190 190 190 50 50 50 50 245 245 245 28 203 214 214 214 214 24 24
 24 24 70 70 114 114 114 114 65 65 150 190 190 190 50 50 50 28 245 245
 245 28 203 203 214 214 214 68 68 82 132 132 132 132 114 114 114 114 146 146
 146 56 56 56 237 237 237 28 28 28 203 203 203 214 68 68 68 68 82 132
 132 132 132 132 114 114 114 146 146 146 56 56 56 243 243 215 215 28 203 203
 203 203 68 68 68 68 68 68 132 132 132 132 147 147 147 146 146 146 146 56
 56 56 215 215 215 215 215 215 52 229 229 68 68 68 68 68 68 45 132 132
 132 147 147 147 146 146 146 146 56 56 56 215 215 215 215 215 215 229 229 229
 229 68 68 68 68 68 132 132 132 132 147 147 147 146 146 146 146 56 56 56
 140 215 215 215 215 215 229 229 229 229 68 68 68 252 252 132 132 132 132 158
 158 158 158 146 146 146 56 56 56 140 140 215 215 215 229 229 229 229 229 229
 68 252 252 252 252 22 132 152 158 158 158 158 154 154 154 56 140 140 140 140
 140 215 178 178 229 229 229 229 229 252 252 252 252 252 22 152 152 158 158 158
 158 154 154 154 154 145 145 145 145 145 178 178 178 178 178 229 229 229 252 252
 252 252 252 22 219 219 219 158 158 158 154 154 154 145 145 145 145 145 145 145
 178 178 178 178 178 229 252 252 252 252 252 252 219 219 219 219 194 194 18 18
 18 18 145 145 145 145 145 145 145 178 178 178 178 178 178 252 252 252 252 252
 173 173 173 219 219 194 18 18 18 18 18 18 145 145 145 145 145 145 178 178
 178 178 178 178 151 151 253 253 173 173 173 173 173 173 173 18 18 18 18 18
 18 145 145 145 145 145 178 178 178 178 178 178 151 151 151 151 173 173 173 173
 173 173 173 87 18 18 18 18 18 18 142 145 145 145 145 233 233 178 178 178
 151 151 151 151 151 151 173 173 173 173 173 173 87 18 18 18 18 142 142 142
 142 144 144 95 95 233 233 233 185 151 151 151 151 151 151 173 173 173 173 173
 173 87 87 18 142 142 142 142 142 142 142 95 95 95 169 233 185 185 185 151
 151 151 20 20 173 173 173 173 173 173 184 184 184 142 142 142 142 142 142 142
 41 95 169 169 169 185 185 185 20 20 20 20 20 173 173 173 173 9 184 184
 184 184 184 142 142 142 142 142 208 41 41 169 169 169 169 185 20 20 20 20
 20 20 9 9 9 9 9 9 184 184 184 184 142 142 142 208 208 208 208 212
 53 53 53 53 53 20 20 20 20 20 20 9 9 9 9 9 9 9 184 184
 184 184 208 208 208 208 208 208 212 53 53 53 53 53 53 20 20 20 20 20
 9 9 9 9 9 9 9 9 9 184 208 208 208 208 208 208 212 212 212 53
 53 53 53 53 20 20 20 86 86 9 9 9 9 9 9 9 9 9 9 208
 208 208 198 198 198 212 212 212 53 53 53 53 53 20 20 20 86 86 86 9
 9 9 9 9 9 9 9 9 198 198 198 198 198 198 212 212 212 212 53 53
 53 53 73 86 86 86 86 86 24 9 9 9 9 9 9 9 9 198 198 198
 198 198 198 212 212 212 212 74 74 74 74 74 86 86 86 86 24 24 24 9
 9 9 9 9 9 9 109 109 109 109 109 50 50 212 212 212 74 74 74 74
 86 86 86 86 24 24 24 24 24 78 78 78 78 78 109 109 109 109 109 50
 50 50 50 212 212 108 108 108 108 214 86 86 24 24 24 24 24 24 78 78
 78 78 78 65 190 190 190 50 50 50 50 50 50 28 108 108 108 214 214 214
 214 24 24 24 24 24 24 78 78 78 78 78 150 150 190 190 50 50 50 50
 50 245 245 245 108 108 214 214 214 214 24 24 24 24 24 24 78 78 78 78
 78 150 150 150 190 50 50 50 50 50 245 245 52 52 52 214 214 214 214 68
 24 24 24 24 24 114 114 114 148 148 150 150 150 150 50 50 50 50 50 245
 52 52 52 52 52 214 214 214 68 68 24 24 132 132 132 132 148 148 148 146
 146 146 56 56 56 215 215 215 215 52 52 52 52 52 214 214 68 68 68 68
 132 132 132 132 132 147 148 146 146 146 146 56 56 56 215 215 215 215 52 52
 52 52 52 68 68 68 68 68 45 45 45 147 147 147 147 147 102 102 102 146
 56 56 56 215 215 215 215 215 52 52 52 229 68 68 68 68 68 45 45 45
 147 147 147 147 147 147 102 102 146 102 56 56 215 215 215 215 215 215 229 229
 229 229 68 68 68 68 45 45 45 45 147 147 147 147 147 102 102 102 102 56
 56 215 215 215 215 215 215 229 229 229 229 68 68 68 68 68 45 45 45 152
 152 152 158 154 154 102 102 102 56 56 215 215 215 215 215 229 229 229 229 229
 229 68 252 252 252 252 45 152 152 152 152 158 154 154 154 154 102 56 140 145
 140 215 215 215 229 229 229 229 229 229 68 252 252 252 252 252 152 152 152 158
 158 154 154 154 154 154 145 145 145 145 145 145 178 178 178 229 229 229 229 252
 252 252 252 252 219 219 219 219 219 158 158 154 154 154 145 145 145 145 145 145
 145 178 178 178 178 178 229 229 252 252 252 252 63 219 219 219 219 219 158 18
 18 18 18 145 145 145 145 145 145 145 178 178 178 178 178 229 229 252 253 253
 253 173 173 219 219 219 219 18 18 18 18 18 145 145 145 145 145 145 145 178
 178 178 178 178 178 151 253 253 253 253 173 173 173 173 173 173 18 18 18 18
 18 18 145 145 145 145 145 145 178 178 178 178 178 151 151 151 253 253 253 173
 173 173 173 173 173 18 18 18 18 18 18 145 145 144 145 145 145 178 178 178
 178 151 151 151 151 151 253 173 173 173 173 173 173 173 18 18 18 18 142 142
 142 142 144 144 144 169 169 185 185 185 185 151 151 151 151 173 173 173 173 173
 173 173 173 18 18 142 142 142 142 142 142 144 144 144 169 169 185 185 185 185
 185 151 151 20 20 173 173 173 173 173 173 184 184 184 142 142 142 142 142 142
 41 41 41 169 169 169 185 185 185 185 20 20 20 20 173 173 173 173 9 9
 184 184 184 142 142 142 142 142 142 41 41 41 169 169 169 169 185 185 20 20
 20 20 20 9 9 9 9 9 9 9 184 184 184 142 142 142 208 208 41 41
 41 169 169 169 169 169 185 20 20 20 20 20 9 9 9 9 9 9 9 9
 184 184 142 208 208 208 208 208 41 41 53 53 53 53 169 169 20 20 20 20
 20 9 9 9 9 9 9 9 9 9 9 208 208 208 208 208 208 41 212 212
 53 53 53 53 53 20 20 20 86 86 9 9 9 9 9 9 9 9 9 9
 198 198 198 198 198 198 212 212 212 53 53 53 53 53 53 20 86 86 86 86
 9 9 9 9 9 9 9 9 9 198 198 198 198 198 198 212 212 212 53 53
 53 53 53 53 86 86 86 86 86 86 9 9 9 9 9 9 9 9 198 198
 198 198 198 198 212 212 212 212 74 74 53 53 86 86 86 86 86 86 24 24
 9 9 9 9 9 9 191 109 109 109 109 109 50 50 212 212 212 105 105 105
 105 86 86 86 86 86 86 24 24 15 15 9 9 9 9 191 109 109 109 109
 50 50 50 50 50 105 105 105 105 105 214 86 86 86 24 24 24 24 15 15
 78 78 78 78 150 150 109 109 50 50 50 50 50 50 105 105 105 105 214 214
 214 214 24 24 24 24 24 15 15 78 78 78 78 150 150 150 150 50 50 50
 50 50 50 105 52 105 52 214 214 214 214 24 24 24 24 24 24 15 148 148
 148 148 150 150 150 150 150 50 50 50 50 50 52 52 52 52 52 214 214 214
 68 24 24 24 24 24 148 148 148 148 148 150 150 150 150 150 50 50 50 50
 52 52 52 52 52 52 214 214 214 68 68 68 24 45 132 147 147 148 148 148
 148 150 150 150 56 56 215 215 215 52 52 52 52 52 52 214 214 68 68 68
 68 45 45 132 147 147 147 148 148 102 102 102 56 56 56 215 215 215 215 52
 52 52 52 52 52 68 68 68 68 45 45 45 147 147 147 147 147 147 102 102
 102 102 56 56 215 215 215 215 215 52 52 52 229 68 68 68 68 68 45 45
 45 147 147 147 147 147 181 102 102 102 102 56 56 215 215 215 215 215 215 229
 229 229 229 68 68 68 68 45 45 45 45 147 147 147 181 181 102 102 102 102
 56 56 215 215 215 215 215 215 229 229 229 229 68 68 68 68 68 45 45 45
 152 152 181 181 181 154 102 102 102 56 56 215 215 215 215 215 229 229 229 229
 229 229 68 68 68 68 45 45 152 152 152 152 181 154 154 154 154 102 145 145
 145 145 215 215 215 229 229 229 229 229 229 68 252 252 252 252 63 152 152 152
 152 154 154 154 154 154 145 145 145 145 145 145 145 178 178 229 229 229 229 229
 252 252 252 63 63 63 152 152 219 219 219 154 154 154 154 145 145 145 145 145
 145 145 149 178 178 178 229 229 229 252 253 253 63 63 63 219 219 219 219 219
 154 154 154 154 145 145 145 145 145 145 149 149 178 178 178 178 229 253 253 253
 253 253 63 63 219 219 219 219 219 18 18 18 18 145 145 145 145 145 145 145
 149 178 178 178 178 178 253 253 253 253 253 253 101 101 219 219 219 18 18 18
 18 18 145 145 145 145 145 145 145 149 178 178 178 178 151 151 253 253 253 253
 253 101 101 173 173 173 18 18 18 18 18 142 144 144 144 144 144 145 149 178
 178 178 151 151 151 253 253 253 253 173 173 173 173 173 173 167 167 167 18 142
 142 142 144 144 144 144 144 169 185 185 185 185 185 151 151 253 253 173 173 173
 173 173 173 173 167 167 167 142 142 142 142 144 144 144 144 144 169 185 185 185
 185 185 185 151 20 20 173 173 173 173 173 173 173 184 142 142 142 142 142 142
 142 41 41 41 41 169 169 185 185 185 185 185 20 20 20 173 173 173 173 9
 9 9 184 184 142 142 142 142 142 41 41 41 41 41 169 169 169 185 185 185
 20 20 20 20 9 9 9 9 9 9 9 9 184 142 142 142 142 41 41 41
 41 41 41 169 169 169 169 169 20 20 20 20 20 9 9 9 9 9 9 9
 9 9 142 142 208 208 208 41 41 41 41 41 169 169 169 169 169 20 20 20
 20 86 9 9 9 9 9 9 9 9 9 9 208 208 208 208 208 41 41 41
 200 53 53 53 169 169 20 20 20 86 86 86 9 9 9 9 9 9 9 9
 9 198 198 198 198 198 198 41 200 200 200 53 53 53 53 53 86 86 86 86
 86 9 9 9 9 9 9 9 9 9 198 198 198 198 198 198 212 200 200 200
 200 156 156 156 156 86 86 86 86 86 86 9 9 9 9 9 9 191 191 191
 198 198 198 198 198 212 200 200 200 200 156 156 156 86 86 86 86 86 86 86
 24 9 9 9 9 9 191 191 191 109 109 109 109 50 50 200 200 105 105 105
 105 105 105 86 86 86 86 86 24 15 15 15 9 9 9 191 191 191 109 109
 109 50 50 50 50 105 105 105 105 105 105 105 86 86 86 86 86 24 15 15
 15 15 15 78 191 191 191 84 84 84 50 50 50 50 50 105 105 105 105 105
 214 214 214 86 86 24 24 15 15 15 15 148 148 148 150 150 150 150 77 50
 50 50 50 105 105 105 105 105 105 214 214 214 214 24 24 24 24 15 15 148
 148 148 148 150 150 150 150 77 77 50 50 50 52 52 52 52 52 214 214 214
 214 214 214 92 92 92 15 148 148 148 148 148 148 150 150 150 77 77 77 50
 52 52 52 52 52 52 52 214 214 214 68 68 92 92 92 92 148 148 148 148
 148 148 150 150 150 77 77 215 215 215 52 52 52 52 52 52 214 214 214 68
 68 68 45 45 45 147 147 148 148 148 148 102 102 102 56 56 215 215 215 215
 52 52 52 52 52 214 68 68 68 68 45 45 45 147 147 147 147 148 148 102
 102 102 102 102 215 215 215 215 215 215 122 122 122 229 229 68 68 68 68 45
 45 45 147 147 147 147 181 181 102 102 102 102 102 215 215 215 215 215 215 215
 229 229 229 229 68 68 68 68 45 45 45 45 147 147 181 181 181 181 102 102
 102 102 215 215 215 215 215 215 215 229 229 229 229 229 68 68 68 68 45 45
 45 152 181 181 181 181 181 102 102 102 102 215 215 215 215 215 215 215 229 229
 229 229 229 68 68 68 68 45 45 152 152 152 181 181 181 154 154 154 102 145
 145 145 215 215 58 58 58 229 229 229 229 229 68 252 63 63 63 63 152 152
 152 152 154 154 154 154 154 154 145 145 145 145 145 58 58 58 229 229 229 229
 229 68 253 63 63 63 63 63 152 219 219 219 154 154 154 154 145 145 145 145
 145 145 149 149 149 149 229 229 229 229 253 253 253 63 63 63 63 219 219 219
 219 154 154 154 154 145 145 145 145 145 145 149 149 149 149 178 178 229 253 253
 253 253 253 63 63 63 219 219 219 219 18 18 18 18 145 145 145 145 145 145
 149 149 149 149 178 178 253 253 253 253 253 253 253 101 101 101 219 219 219 167
 167 167 18 2 2 2 2 2 2 149 149 149 149 178 178 253 253 253 253 253
 253 253 101 101 101 101 219 167 167 167 167 167 144 144 144 144 144 144 149 149
 149 123 185 185 151 253 253 253 253 253 101 101 101 101 101 101 167 167 167 167
 142 142 144 144 144 144 144 144 123 123 123 185 185 185 185 253 253 253 253 101
 101 101 101 101 101 167 167 167 167 142 142 142 144 144 144 144 144 169 185 185
 185 185 185 185 32 253 253 253 101 101 101 101 101 101 167 167 167 142 142 142
 142 41 41 41 41 41 169 169 185 185 185 185 185 32 20 20 253 101 101 101
 9 9 9 9 184 142 142 142 142 41 41 41 41 41 41 169 169 169 185 185
 185 185 32 20 20 9 9 9 9 9 9 9 9 9 97 142 142 142 41 41
 41 41 41 41 169 169 169 169 169 185 185 32 20 20 9 9 9 9 9 9
 9 9 9 250 97 142 41 41 41 41 41 41 41 169 169 169 169 169 20 20
 20 86 86 9 9 9 9 9 9 9 9 9 250 250 97 41 41 41 41 41
 41 200 200 200 169 169 169 169 126 126 86 86 9 9 9 9 9 9 9 9
 9 250 250 198 198 41 41 41 41 200 200 200 200 156 156 169 126 126 126 86
 86 86 9 9 9 9 9 9 9 9 191 191 198 198 198 198 41 41 200 200
 200 200 156 156 156 126 126 86 86 86 86 86 9 9 9 9 9 191 191 191
 191 191 198 198 198 198 200 200 200 200 200 156 156 156 126 126 86 86 86 86
 86 9 9 9 9 9 191 191 191 191 191 84 84 84 84 23 200 200 200 105
 105 105 105 105 86 86 86 86 86 86 15 15 15 9 9 191 191 191 191 191
 84 84 84 84 50 50 200 105 105 105 105 105 105 86 86 86 86 86 86 15
 15 15 15 247 247 191 191 191 84 84 84 84 84 50 50 105 105 105 105 105
 105 214 214 214 196 196 196 196 15 15 15 15 148 148 148 150 150 150 77 77
 77 77 50 50 105 105 105 105 105 105 214 214 214 196 196 196 92 92 15 15
 148 148 148 148 150 150 150 77 77 77 77 77 77 105 105 105 105 105 105 214
 214 214 196 196 92 92 92 92 148 148 148 148 148 148 150 150 77 77 77 77
 77 122 122 122 122 122 122 122 214 214 214 68 92 92 92 92 92 148 148 148
 148 148 148 148 150 77 77 77 77 215 122 122 122 122 122 122 122 214 214 68
 68 68 92 92 92 92 147 148 148 148 148 148 102 102 102 56 215 215 215 215
 215 122 122 122 122 122 122 68 68 68 68 68 92 45 147 147 147 148 148 148
 148 102 102 102 102 215 215 100 100 215 215 122 122 122 122 229 68 68 68 68
 68 45 45 147 147 147 181 181 181 102 102 102 102 102 215 215 215 215 215 215
 215 122 229 229 229 68 68 68 68 68 45 45 45 147 181 181 181 181 181 102
 102 102 102 215 215 215 215 215 215 215 229 229 229 229 229 68 68 68 176 176
 176 176 152 181 181 181 181 181 102 102 102 193 215 215 215 215 215 58 58 229
 229 229 229 229 68 68 68 176 176 176 152 152 181 181 181 181 181 154 154 193
 193 193 145 215 58 58 58 58 58 229 229 229 229 68 63 63 63 63 63 63
 152 152 181 181 154 154 154 154 193 193 145 145 145 58 58 58 58 58 229 229
 229 229 68 253 63 63 63 63 63 152 219 219 219 154 154 154 154 193 145 145
 145 145 149 149 149 149 149 229 229 229 229 253 253 253 63 63 63 63 219 219
 219 219 154 154 154 154 145 145 145 145 145 149 149 149 149 149 149 178 253 253
 253 253 253 253 63 63 63 219 219 219 219 167 167 167 2 2 2 2 2 2
 149 149 149 149 149 149 123 253 253 253 253 253 253 253 101 101 101 219 219 167
 167 167 167 167 2 2 2 2 2 2 149 149 149 123 123 123 253 253 253 253
 253 253 253 101 101 101 101 101 167 167 167 167 167 144 144 144 144 144 144 149
 123 123 123 123 123 32 253 253 253 253 253 101 101 101 101 101 101 167 167 167
 167 167 142 144 144 144 144 144 144 123 123 123 123 32 32 32 253 32 253 253
 101 101 101 101 101 101 167 167 167 167 142 142 144 144 144 144 144 144 123 123
 123 185 185 32 32 32 32 32 253 101 101 101 101 101 101 167 167 167 167 142
 142 41 41 41 41 41 41 169 169 185 185 185 32 32 32 32 32 32 101 101
 101 101 101 101 119 119 97 97 97 142 41 41 41 41 41 41 169 169 169 185
 185 32 32 32 32 32 32 4 4 4 4 9 9 9 250 97 97 97 41 41
 41 41 41 41 41 169 169 169 169 169 32 32 32 32 32 4 4 4 4 4
 9 9 9 250 250 97 97 97 41 41 41 41 41 41 41 169 169 169 169 32
 32 32 126 126 4 4 4 4 4 9 9 9 250 250 250 97 97 41 41 41
 41 41 200 200 200 156 156 126 126 126 126 126 126 4 4 4 4 9 9 9