# vtk DataFile Version 2.0
Data set from ImportExport Version 6.5.171.b0b162591
ASCII

DATASET RECTILINEAR_GRID
DIMENSIONS 30 30 30
X_COORDINATES 30 float
-1.250000 1.250000 3.750000 6.250000 8.750000 11.250000 13.750000 16.250000 18.750000 21.250000 23.750000 26.250000 28.750000 31.250000 33.750000 36.250000 38.750000 41.250000 43.750000 46.250000 48.750000 
51.250000 53.750000 56.250000 58.750000 61.250000 63.750000 66.250000 68.750000 71.250000 
Y_COORDINATES 30 float
-1.250000 1.250000 3.750000 6.250000 8.750000 11.250000 13.750000 16.250000 18.750000 21.250000 23.750000 26.250000 28.750000 31.250000 33.750000 36.250000 38.750000 41.250000 43.750000 46.250000 48.750000 
51.250000 53.750000 56.250000 58.750000 61.250000 63.750000 66.250000 68.750000 71.250000 
Z_COORDINATES 30 float
-1.250000 1.250000 3.750000 6.250000 8.750000 11.250000 13.750000 16.250000 18.750000 21.250000 23.750000 26.250000 28.750000 31.250000 33.750000 36.250000 38.750000 41.250000 43.750000 46.250000 48.750000 
51.250000 53.750000 56.250000 58.750000 61.250000 63.750000 66.250000 68.750000 71.250000 
CELL_DATA 24389
SCALARS FeatureIds int 1
LOOKUP_TABLE default
 123 107 107 107 29 29 29 133 133 133 133 94 94 94 226 226 226 226 226 85
 85 85 85 206 206 206 206 206 123 123 107 107 107 29 29 29 29 133 133 4
 4 4 94 79 79 79 226 226 85 85 85 85 206 206 206 206 123 123 123 107
 107 107 29 29 29 29 136 4 4 4 4 16 202 202 202 202 79 79 85 85
 206 206 206 206 123 123 123 123 123 107 199 199 199 199 199 136 4 4 4 4
 16 16 202 202 202 202 202 202 85 206 206 206 123 123 123 123 123 123 199 199
 199 199 199 199 136 136 4 4 4 16 16 202 202 202 202 202 162 162 162 206
 206 123 123 123 123 123 123 199 199 199 199 199 199 136 136 4 4 4 16 16
 16 202 202 202 202 162 162 162 162 123 123 123 123 123 123 199 199 199 199 199
 199 199 136 136 136 4 4 16 16 16 202 202 162 162 162 162 162 162 162 150
 150 123 123 123 114 114 114 114 114 114 114 136 136 136 4 242 242 242 242 202
 162 162 162 162 162 162 162 150 150 150 150 150 114 114 114 114 114 114 114 114
 114 136 242 242 242 242 242 242 240 240 162 162 162 162 162 162 150 150 150 150
 150 124 124 124 114 114 114 114 114 114 114 242 242 242 242 242 242 3 240 240
 162 162 162 162 162 150 150 150 150 150 124 124 124 124 114 114 114 114 114 114
 242 242 242 242 242 242 3 240 148 126 126 126 162 150 150 150 150 150 150 207
 207 124 124 124 114 114 114 114 114 242 242 242 242 15 15 153 148 148 126 126
 126 126 126 150 150 150 150 150 207 207 207 124 151 151 151 151 114 114 15 15
 15 15 15 153 153 148 148 126 126 126 126 126 126 150 129 129 207 207 207 207
 151 151 151 151 151 151 15 15 15 15 15 15 153 153 148 148 126 126 126 126
 126 126 129 129 129 207 207 207 207 151 151 151 151 151 151 15 15 15 15 15
 15 153 153 148 148 126 126 126 126 126 129 129 129 129 129 207 207 207 151 151
 151 151 151 243 101 15 15 15 15 15 36 36 148 148 126 147 147 147 126 129
 129 129 129 129 207 207 35 35 35 243 243 243 243 101 101 15 15 36 36 36
 36 36 148 126 147 147 147 147 129 129 129 129 129 54 35 35 35 35 243 243
 243 243 101 101 101 101 36 36 36 36 36 36 147 147 147 147 147 129 129 129
 129 129 54 54 35 35 188 243 243 243 101 101 101 101 101 36 36 36 36 36
 80 80 80 80 80 80 80 1 54 54 54 54 54 54 35 188 188 243 101 101
 101 101 101 101 101 36 36 36 36 80 80 80 80 80 80 80 1 54 54 54
 54 54 54 188 188 188 101 101 101 101 101 101 101 101 17 74 74 74 80 80
 80 80 80 80 1 1 1 54 54 54 54 54 59 59 59 59 101 101 101 101
 101 101 101 118 118 118 118 80 80 80 80 80 80 1 1 1 54 54 54 54
 54 59 59 59 59 59 101 101 101 101 101 17 118 118 118 118 80 80 80 80
 80 80 1 1 1 54 54 54 54 54 59 59 59 59 59 106 106 106 101 101
 17 118 118 118 118 80 80 80 80 80 80 1 1 54 54 54 54 54 192 192
 192 192 192 192 106 106 106 106 106 17 118 118 118 118 80 80 80 80 80 80
 160 1 54 54 54 54 54 192 192 192 192 192 192 133 106 106 34 34 34 34
 226 226 226 226 85 85 85 85 85 160 216 216 216 54 54 192 192 192 192 192
 192 133 133 133 34 34 34 34 34 226 226 226 226 85 85 85 85 85 216 216
 216 216 216 164 164 164 192 192 192 133 133 133 133 34 34 34 34 34 226 226
 226 226 85 85 85 85 85 216 216 216 216 216 28 164 164 29 29 29 133 133
 133 133 34 34 34 34 34 226 226 226 226 85 85 85 85 85 216 216 216 216
 216 123 107 107 29 29 29 29 133 133 133 94 94 94 94 79 79 79 79 79
 85 85 85 85 85 216 216 206 123 123 123 107 107 29 29 29 29 29 133 133
 4 4 94 94 79 79 79 79 79 85 85 85 85 206 123 123 123 123 123 123
 123 107 29 29 29 29 29 29 4 4 4 4 16 202 202 202 202 79 79 85
 85 85 206 123 123 123 123 123 123 123 123 199 199 199 199 136 136 4 4 4
 4 16 16 202 202 202 202 202 202 85 123 123 123 123 123 123 123 123 123 123
 199 199 199 199 136 136 136 4 4 4 16 16 202 202 202 202 202 202 162 121
 121 123 123 123 123 123 123 123 199 199 199 199 199 136 136 136 4 4 4 16
 16 16 202 202 202 202 162 162 121 121 121 123 123 123 123 123 123 199 44 44
 44 199 136 136 136 136 4 4 16 16 16 202 202 241 241 162 162 121 121 121
 121 150 150 123 123 114 114 44 44 44 114 114 136 136 136 4 4 16 16 16
 241 241 241 241 162 162 121 121 121 150 150 150 150 114 114 114 114 114 114 114
 114 114 136 136 242 242 242 242 3 240 240 241 241 162 162 162 150 150 150 150
 150 150 124 124 124 124 114 114 114 114 114 114 242 242 242 242 242 3 3 240
 240 241 162 162 162 150 150 150 150 150 150 124 124 124 124 114 114 114 114 114
 90 90 242 242 242 242 3 3 240 240 240 126 126 144 150 150 150 150 150 150
 207 207 124 124 124 114 114 114 114 90 90 242 242 242 15 3 3 240 148 148
 126 126 126 144 150 150 150 150 150 207 207 207 124 151 151 151 151 114 90 90
 15 15 15 15 3 148 148 148 148 126 126 126 126 144 150 150 150 207 207 207
 207 151 151 151 151 151 151 176 15 15 15 15 15 153 148 148 148 126 126 126
 126 126 126 129 129 129 207 207 207 207 151 151 151 151 151 151 176 15 15 15
 15 15 153 148 148 148 126 126 126 126 126 126 129 129 129 207 207 207 207 151
 151 151 151 151 151 101 15 15 15 15 36 36 36 148 148 126 126 126 126 126
 126 129 129 129 129 207 207 207 35 35 243 243 243 243 101 101 101 15 36 36
 36 36 148 148 126 126 126 126 126 43 129 129 129 129 54 35 35 35 35 243
 243 243 243 101 101 101 101 36 36 36 36 36 110 147 147 147 147 147 43 129
 129 129 54 54 54 54 35 188 243 243 243 101 101 101 101 101 36 36 36 36
 36 110 80 80 80 80 80 1 1 54 54 54 54 54 54 54 188 243 243 101
 101 101 101 101 101 101 36 36 36 36 80 80 80 80 80 80 1 1 54 54
 54 54 54 54 54 188 188 101 101 101 101 101 101 101 17 17 17 17 17 80
 80 80 80 80 80 1 1 1 54 54 54 54 54 54 59 59 59 101 101 101
 101 101 101 17 17 17 17 17 80 80 80 80 80 80 1 1 1 54 54 54
 54 54 59 59 59 59 59 101 101 101 101 101 17 17 17 17 17 80 80 80
 80 80 80 1 1 1 54 54 54 54 54 59 59 59 59 59 106 106 106 101
 101 17 17 17 17 17 80 80 80 80 80 80 1 1 54 54 54 54 54 54
 192 192 192 192 192 106 106 106 106 101 17 17 17 17 112 80 80 80 80 80
 160 160 1 54 54 54 54 54 192 192 192 192 192 192 133 133 94 94 94 94
 112 112 112 112 85 85 85 85 85 160 160 216 216 54 54 54 164 164 192 192
 192 192 133 133 133 94 94 94 94 112 112 226 226 85 85 85 85 85 160 160
 216 216 216 216 164 164 164 164 192 192 133 133 133 133 94 94 94 94 112 112
 226 226 85 85 85 85 85 160 216 216 216 216 216 28 164 164 164 29 29 133
 133 133 133 94 94 94 94 112 112 226 226 85 85 85 85 85 85 216 216 216
 216 216 123 28 28 29 29 29 29 133 133 133 94 94 94 94 79 79 79 79
 79 85 85 85 85 85 216 216 123 123 123 123 123 29 29 29 29 29 29 29
 29 94 94 94 94 79 79 79 79 79 79 85 85 85 85 123 123 123 123 123
 123 123 98 29 29 29 29 29 29 4 4 4 108 16 202 202 202 202 202 202
 202 85 85 206 123 123 123 123 123 123 123 123 98 29 29 29 29 136 4 4
 4 16 16 16 202 202 202 202 202 202 202 121 123 123 123 123 123 123 123 123
 98 199 199 199 199 136 136 136 4 4 16 16 16 202 202 202 202 202 202 121
 121 121 123 123 123 123 123 123 123 44 44 44 199 199 136 136 136 4 4 16
 16 16 16 202 202 202 202 202 121 121 121 121 121 123 123 123 123 123 44 44
 44 44 44 136 136 136 136 4 16 16 16 16 202 202 241 241 121 121 121 121
 121 121 121 123 123 123 114 114 44 44 44 44 114 136 136 136 4 16 16 16
 16 241 241 241 241 241 121 121 121 121 121 150 150 150 114 114 114 114 114 114
 114 114 114 136 90 90 90 90 3 3 241 241 241 241 241 121 121 121 150 150
 150 150 150 124 124 124 124 114 114 114 114 114 90 90 90 90 90 3 3 3
 240 240 241 241 241 144 150 150 150 150 150 150 124 124 124 124 114 114 114 114
 114 90 90 90 90 90 90 3 3 240 240 241 241 144 144 144 150 150 150 150
 150 207 207 124 124 124 114 114 114 114 90 90 90 90 90 90 3 3 240 240
 148 126 126 144 144 144 150 150 150 150 207 207 207 124 151 151 151 151 114 90
 90 90 90 90 15 3 3 148 148 148 126 126 126 144 144 144 150 150 207 207
 207 207 151 151 151 151 151 176 176 176 176 15 15 15 3 148 148 148 148 126
 126 126 126 144 144 129 129 207 207 207 207 151 151 151 151 151 176 176 176 176
 176 15 15 148 148 148 148 148 126 126 126 126 43 43 129 129 207 168 168 168
 168 151 151 151 151 176 176 176 176 176 36 36 36 36 148 148 126 126 126 126
 43 43 43 129 129 129 168 168 168 168 151 243 243 243 101 101 101 101 82 36
 36 36 36 148 148 126 126 126 126 43 43 43 129 129 168 168 168 168 168 243
 243 243 243 101 101 101 101 82 36 36 36 36 36 110 110 126 126 126 43 43
 43 54 54 54 54 54 54 54 243 243 243 243 101 101 101 101 101 36 36 36
 36 110 110 110 80 80 80 80 80 54 54 54 54 54 54 54 54 243 243 243
 101 101 101 101 101 101 101 17 17 17 17 110 80 80 80 80 80 80 1 54
 54 54 54 54 54 54 54 101 101 101 101 101 101 101 101 17 17 17 17 17
 110 80 80 80 80 80 1 1 54 54 54 54 54 54 54 59 59 59 101 101
 101 101 101 101 17 17 17 17 17 80 80 80 80 80 80 1 1 1 54 54
 54 54 54 59 59 59 59 59 101 101 101 101 101 17 17 17 17 17 80 80
 80 80 80 80 1 1 54 54 54 54 54 54 59 59 59 59 59 59 101 101
 101 101 17 17 17 17 17 17 80 80 80 80 80 1 1 54 54 54 54 54
 54 59 192 192 192 192 192 106 94 94 94 17 17 17 112 112 139 80 80 80
 160 160 160 160 54 54 54 54 54 54 192 192 192 192 192 133 133 94 94 94
 94 112 112 112 112 112 85 85 85 160 160 160 160 216 54 54 54 164 164 164
 192 192 192 133 133 133 94 94 94 94 112 112 112 112 112 85 85 85 160 160
 160 216 216 216 54 164 164 164 164 164 192 133 133 133 133 94 94 94 94 112
 112 112 112 112 85 85 85 85 160 216 216 216 216 216 28 164 164 164 164 29
 133 133 133 133 94 94 94 94 112 112 112 112 85 85 85 85 85 160 216 216
 216 216 216 28 28 28 164 164 29 29 133 133 94 94 94 94 94 79 79 79
 79 79 79 85 85 85 142 142 142 123 123 123 98 98 98 29 29 29 29 29
 29 108 108 108 108 108 79 79 79 65 79 79 85 85 85 142 142 123 123 123
 123 98 98 98 98 29 29 29 29 29 108 108 108 108 108 79 79 79 79 202
 202 202 85 85 123 123 123 123 123 123 98 98 98 98 195 195 195 195 132 108
 108 108 108 16 16 202 202 202 202 202 202 202 121 123 123 123 123 123 123 98
 98 98 98 195 195 195 195 132 132 108 108 16 16 16 202 202 202 202 202 202
 121 121 121 121 123 123 123 123 98 98 98 44 195 195 195 195 132 132 132 16
 16 16 16 16 202 202 202 202 202 121 121 121 121 121 121 123 123 98 98 44
 44 44 44 195 195 132 132 132 16 16 16 16 16 202 241 241 241 241 121 121
 121 121 121 121 121 123 7 7 114 44 44 44 44 114 132 132 132 16 16 16
 16 16 241 241 241 241 241 121 121 121 121 121 121 150 150 7 7 114 114 44
 114 114 114 114 90 90 90 90 16 16 241 241 241 241 241 241 241 121 121 121
 121 150 150 150 7 124 124 114 114 114 114 114 114 90 90 90 90 90 90 3
 3 3 241 241 241 241 144 144 150 150 150 150 150 124 124 124 124 114 114 114
 114 114 90 90 90 90 90 90 3 3 3 240 241 241 241 144 144 144 150 150
 150 150 207 207 124 124 124 114 114 114 90 90 90 90 90 90 90 3 3 240
 240 148 241 144 144 144 144 144 150 150 150 207 207 207 124 151 151 151 151 90
 90 90 90 90 90 90 3 240 240 148 148 148 126 144 144 144 144 150 150 207
 207 207 168 151 151 151 151 151 176 176 176 176 176 176 240 240 148 148 148 148
 126 126 126 144 144 144 144 168 168 168 168 168 168 151 151 151 151 176 176 176
 176 176 82 82 240 148 148 148 148 126 126 43 43 43 43 43 168 168 168 168
 168 168 168 151 151 151 176 176 176 176 176 82 82 36 6 6 148 148 126 126
 43 43 43 43 43 168 168 168 168 168 168 168 151 243 101 101 101 176 82 82
 82 36 36 6 6 6 6 126 43 43 43 43 43 43 168 168 168 168 168 168
 168 243 243 101 101 101 101 82 82 82 82 36 36 6 110 110 110 43 43 43
 43 43 54 54 168 54 54 54 54 243 243 243 101 101 101 101 101 82 82 82
 82 36 110 110 110 110 110 43 43 43 54 54 54 54 54 54 54 54 54 243
 243 101 101 101 101 101 101 82 17 17 17 110 110 110 110 80 80 80 54 54
 54 54 54 54 54 54 54 54 101 101 101 101 101 101 101 101 17 17 17 17
 17 110 110 80 80 80 80 1 54 54 54 54 54 54 54 54 59 59 59 170
 170 101 101 101 17 17 17 17 17 17 110 110 80 80 80 80 1 54 54 54
 54 54 54 54 54 59 59 59 170 170 101 101 101 17 17 17 17 17 17 139
 139 80 80 80 80 1 54 54 54 54 54 54 54 54 59 59 59 59 170 170
 101 101 17 17 17 17 17 17 139 139 139 80 80 80 54 54 54 54 54 54
 54 54 54 59 59 59 59 170 170 94 94 94 17 17 112 112 112 139 139 139
 80 160 160 160 54 54 54 54 54 33 33 164 192 192 192 192 133 94 94 94
 94 94 112 112 112 112 112 139 139 160 160 160 160 160 54 54 54 54 164 164
 164 164 192 192 133 133 94 94 94 94 94 112 112 112 112 112 112 85 85 160
 160 160 160 216 216 54 28 28 164 164 164 164 133 133 133 94 94 94 94 94
 112 112 112 112 112 85 85 85 160 160 160 216 216 216 28 28 28 164 164 164
 164 133 133 133 94 94 94 94 94 112 112 112 112 112 85 85 85 85 160 160
 216 216 216 28 28 28 28 164 164 29 29 133 133 94 94 94 94 94 112 112
 79 79 79 79 85 85 142 142 142 142 142 142 123 98 98 98 98 29 29 29
 29 108 108 108 108 108 108 79 79 79 79 79 79 79 85 142 142 142 142 142
 123 123 98 98 98 98 98 195 29 29 108 108 108 108 108 108 108 79 79 79
 202 202 202 202 142 142 142 123 123 123 98 98 98 98 98 195 195 195 195 132
 108 108 108 108 108 16 202 202 202 202 202 202 202 121 121 123 123 123 123 98
 98 98 98 195 195 195 195 195 132 132 108 108 108 16 16 202 202 202 202 202
 202 121 121 121 121 121 123 123 98 98 98 98 195 195 195 195 132 132 132 132
 108 16 16 16 16 202 202 202 202 241 121 121 121 121 121 121 146 98 98 98
 98 195 195 195 195 132 132 132 132 132 16 16 16 16 241 241 241 241 241 121
 121 121 121 121 121 146 146 7 7 7 44 195 195 195 132 132 132 132 132 16
 16 16 241 241 241 241 241 241 121 121 121 121 121 121 146 146 7 7 7 114
 114 114 114 114 132 90 90 90 90 90 16 241 241 241 241 241 241 241 121 121
 121 121 185 185 185 7 7 7 114 114 114 114 114 90 90 90 90 90 90 90
 3 3 241 241 241 241 241 144 144 185 185 185 185 185 7 7 7 7 114 114
 114 114 90 90 90 90 90 90 90 3 3 3 241 241 241 241 144 144 144 185
 185 185 185 40 40 40 40 114 114 114 114 90 90 90 90 90 90 90 3 3
 240 240 241 241 241 144 144 144 185 185 185 185 40 40 40 40 151 151 151 176
 176 176 90 90 90 90 90 240 240 240 148 148 148 144 144 144 144 144 185 185
 40 168 168 168 168 151 151 151 151 176 176 176 176 176 176 176 240 240 148 148
 148 148 126 43 43 43 43 43 168 168 168 168 168 168 168 151 151 151 176 176
 176 176 176 82 82 6 6 6 148 148 148 43 43 43 43 43 43 168 168 168
 168 168 168 168 151 151 176 176 176 176 176 82 82 82 6 6 6 6 6 43
 43 43 43 43 43 43 168 168 168 168 168 168 168 168 243 101 176 176 176 82
 82 82 82 82 6 6 6 6 110 43 43 43 43 43 43 168 168 168 168 168
 168 168 168 243 101 101 101 82 82 82 82 82 82 6 6 110 110 110 43 43
 43 43 43 43 168 168 54 168 168 168 168 243 243 101 101 101 101 82 82 82
 82 82 82 110 110 110 110 110 43 43 43 54 54 54 54 54 54 54 54 54
 42 243 101 101 101 101 82 82 82 82 17 17 110 110 110 110 110 80 43 54
 54 54 54 54 54 54 54 54 54 42 170 170 170 101 101 101 82 17 17 17
 17 110 110 110 110 110 80 80 54 54 54 54 54 54 54 54 54 54 170 170
 170 170 170 101 101 17 17 17 17 17 17 110 110 110 80 80 80 1 54 54
 54 54 54 54 54 54 59 59 170 170 170 170 170 170 17 17 17 17 17 17
 139 139 173 173 80 80 54 54 54 54 54 54 54 54 54 59 59 170 170 170
 170 170 170 17 17 17 17 17 139 139 139 173 173 173 173 54 54 54 54 54
 54 33 33 33 59 59 170 170 170 170 94 94 94 112 112 112 112 139 139 139
 139 173 173 160 160 54 54 54 54 33 33 33 33 33 192 192 170 170 94 94
 94 94 112 112 112 112 112 112 139 139 160 160 160 160 160 54 33 33 33 28
 33 164 164 164 192 133 133 94 94 94 94 94 112 112 112 112 112 112 85 85
 160 160 160 160 142 33 33 28 28 164 164 164 164 133 133 133 94 94 94 94
 94 112 112 112 112 112 112 85 85 160 160 142 142 142 142 28 28 28 28 164
 164 164 133 133 133 94 94 94 94 94 112 112 112 112 112 112 85 85 142 142
 142 142 142 142 28 28 28 28 164 164 29 29 63 138 138 108 108 108 108 112
 112 112 112 79 79 22 22 142 142 142 142 142 142 142 98 98 98 98 98 195
 195 195 108 108 108 108 108 108 108 79 79 79 79 79 79 142 142 142 142 142
 142 142 98 98 98 98 98 195 195 195 195 108 108 108 108 108 108 108 79 79
 79 202 202 202 202 142 142 142 142 142 98 98 98 98 98 98 195 195 195 195
 132 132 108 108 108 108 108 202 202 202 202 202 202 187 187 187 187 187 123 123
 98 98 98 98 195 195 195 195 195 132 132 108 108 108 108 16 202 202 202 202
 202 202 187 187 187 187 187 146 98 98 98 98 98 195 195 195 195 132 132 132
 132 108 108 16 16 16 202 202 202 241 241 187 187 187 187 121 146 146 98 146
 98 98 195 195 195 195 132 132 132 132 132 16 16 16 16 241 241 241 241 241
 39 121 121 121 121 146 146 146 7 7 7 195 195 195 195 195 132 132 132 132
 16 16 16 241 241 241 241 241 241 241 121 121 121 121 146 146 146 7 7 7
 7 195 195 195 195 132 132 90 90 90 90 88 241 241 241 241 241 241 241 121
 121 121 185 185 185 146 7 7 7 7 114 114 114 114 12 90 90 90 90 90
 88 88 241 241 241 241 241 241 241 144 185 185 185 185 185 7 7 7 7 114
 114 114 12 12 90 90 90 90 90 88 88 3 241 241 241 241 241 241 144 185
 185 185 185 185 40 40 40 40 152 114 114 12 12 90 90 90 90 90 90 88
 240 240 241 241 241 241 144 144 144 185 185 185 40 40 40 40 40 152 152 152
 12 12 176 176 90 90 90 90 240 240 240 148 148 241 241 144 144 144 144 185
 185 40 40 40 40 168 152 152 227 176 176 176 176 176 176 176 176 6 6 6
 148 148 148 43 43 43 43 43 43 168 168 168 168 168 168 168 168 227 176 176
 176 176 176 176 9 82 6 6 6 6 6 43 43 43 43 43 43 43 168 168
 168 168 168 168 168 168 227 176 176 176 176 176 82 82 82 6 6 6 6 6
 43 43 43 43 43 43 43 168 168 168 168 168 168 168 168 227 227 176 176 176
 82 82 82 82 82 6 6 6 6 110 43 43 43 43 43 43 168 168 168 168
 168 168 168 168 227 101 101 101 82 82 82 82 82 82 6 6 110 110 110 51
 43 43 43 43 43 168 168 168 168 168 168 42 42 42 101 101 101 82 82 82
 82 82 82 82 110 110 110 110 110 51 43 43 43 54 73 54 54 54 54 54
 42 42 42 170 101 101 82 82 82 82 82 82 110 110 110 110 110 110 110 43
 43 54 54 54 54 54 54 54 54 42 42 42 170 170 170 82 82 82 82 17
 17 17 110 110 110 110 110 110 110 54 54 54 54 54 54 54 54 54 42 42
 170 170 170 170 170 82 82 17 17 17 17 110 110 110 110 110 110 110 54 54
 54 54 54 54 54 54 54 42 42 170 170 170 170 170 170 17 17 17 17 17
 139 139 173 173 173 173 173 54 54 54 54 54 54 54 54 54 42 42 170 170
 170 170 170 170 170 89 89 89 89 139 139 139 173 173 173 173 54 54 54 54
 54 33 33 33 33 33 42 170 170 170 170 170 170 89 89 89 89 89 139 139
 139 173 173 173 173 160 54 54 54 33 33 33 33 33 33 33 170 170 170 170
 94 94 94 89 89 89 112 112 139 139 139 173 173 160 160 142 33 33 33 33
 33 33 33 33 33 63 63 63 94 94 94 94 112 112 112 112 112 112 22 22
 22 160 142 142 142 142 33 33 28 28 28 33 164 164 63 63 63 94 94 94
 94 94 112 112 112 112 112 22 22 22 142 142 142 142 142 142 28 28 28 28
 28 164 164 133 63 138 138 94 94 94 112 112 112 112 112 112 22 22 22 142
 142 142 142 142 142 28 28 28 28 28 28 63 63 63 138 138 138 138 138 108
 112 112 112 112 22 22 22 22 142 142 142 142 142 142 142 98 98 98 98 98
 195 63 63 108 108 108 108 108 108 108 79 79 92 79 22 22 22 142 142 142
 142 142 142 98 98 98 98 98 98 195 195 195 108 108 108 108 108 108 108 92
 92 92 92 92 22 187 187 142 142 142 142 98 98 98 98 98 98 195 195 195
 195 132 132 108 108 108 108 108 202 202 92 202 202 187 187 187 187 187 187 187
 98 98 98 98 98 195 195 195 195 195 132 132 132 108 108 108 108 202 202 202
 202 202 187 187 187 187 187 187 187 146 98 98 98 98 195 195 195 195 132 132
 132 132 108 108 108 108 16 202 241 241 241 39 187 187 187 187 187 146 146 146
 146 98 98 195 195 195 195 132 132 132 132 132 108 16 16 88 241 241 241 241
 39 39 187 187 187 146 146 146 146 146 7 7 7 195 195 195 195 132 132 132
 132 182 16 88 88 241 241 241 241 39 39 39 187 187 146 146 146 146 7 7
 7 7 224 224 224 224 224 132 132 90 90 88 88 88 88 241 241 241 241 39
 39 121 185 185 185 146 146 7 7 7 7 224 224 224 224 12 12 12 90 90
 88 88 88 88 241 241 241 241 241 241 144 185 185 185 185 146 7 7 7 104
 104 224 224 12 12 12 12 90 90 88 88 88 88 241 241 241 241 241 241 144
 185 185 185 185 185 40 40 40 104 152 152 12 12 12 12 12 90 90 90 88
 88 88 241 241 241 241 241 241 149 185 185 185 185 40 40 40 40 152 152 152
 152 12 12 12 12 176 90 90 88 88 240 241 241 241 241 241 149 149 149 149
 185 185 40 40 40 152 152 152 152 227 12 12 176 176 176 176 9 9 6 6
 6 6 6 43 43 43 43 43 43 43 168 168 168 168 168 152 152 152 227 227
 227 176 176 176 9 9 9 6 6 6 6 6 43 43 43 43 43 43 43 168
 168 168 168 168 168 168 227 227 227 227 176 176 176 9 9 9 9 6 6 6
 6 51 43 43 43 43 43 43 168 168 168 168 168 168 168 227 227 227 227 176
 176 82 82 82 82 82 6 6 6 6 51 51 43 43 43 43 43 168 168 168
 168 168 168 168 227 227 227 227 82 82 82 82 82 82 82 6 6 110 110 51
 51 51 43 43 43 73 73 168 73 168 168 168 42 42 42 42 227 82 82 82
 82 82 82 82 82 110 110 110 110 51 51 51 43 73 73 73 73 73 73 168
 42 42 42 42 42 170 82 82 82 82 82 82 82 82 110 110 110 110 110 51
 51 73 73 73 73 73 73 54 54 42 42 42 42 42 170 170 183 82 82 82
 82 82 17 110 110 110 110 110 110 73 73 73 73 73 73 54 54 54 42 42
 42 42 170 170 170 170 183 82 17 17 17 17 110 110 110 110 110 110 73 73
 73 73 73 73 54 54 54 42 42 42 42 170 170 170 170 183 183 17 17 17
 17 139 173 173 173 173 173 173 73 73 73 73 54 54 54 33 42 42 42 170
 170 170 170 170 170 89 89 89 89 89 139 139 173 173 173 173 173 73 73 73
 54 54 33 33 33 33 33 42 5 170 170 170 170 138 89 89 89 89 89 139
 139 173 173 173 173 173 173 73 73 33 33 33 33 33 33 33 33 5 170 170
 138 138 138 89 89 89 89 89 89 139 139 173 173 173 173 142 142 33 33 33
 33 33 33 33 33 33 63 63 63 138 138 138 138 89 89 89 89 112 22 22
 22 22 22 142 142 142 142 33 33 28 28 33 33 33 33 63 63 63 138 138
 138 138 89 89 89 112 112 22 22 22 22 142 142 142 142 142 33 33 28 28
 28 33 33 63 63 63 138 138 138 138 138 138 112 112 112 112 22 22 22 22
 142 142 142 142 142 142 28 28 28 28 28 63 63 63 63 138 138 138 138 138
 138 38 38 38 22 22 22 22 22 142 142 142 142 142 142 56 98 98 98 98
 98 63 63 63 138 138 138 138 138 38 38 38 92 92 92 92 22 22 142 142
 142 142 142 142 56 98 98 98 98 98 195 195 63 108 108 108 108 108 108 38
 92 92 92 92 92 92 187 187 142 142 142 142 120 98 98 98 98 98 195 195
 195 195 132 132 108 108 108 108 108 92 92 92 92 92 187 187 187 187 187 187
 120 98 98 98 98 98 195 195 195 195 195 132 132 132 182 108 108 108 92 92
 92 92 92 187 187 187 187 187 187 146 146 98 146 98 98 195 195 195 195 132
 132 132 132 182 182 182 182 92 92 92 241 39 39 187 187 187 187 187 146 146
 146 146 98 7 195 195 195 195 224 132 132 132 182 182 182 182 88 88 241 241
 241 39 39 187 187 187 146 146 146 146 146 7 7 7 224 224 224 224 224 132
 132 182 182 182 88 88 88 241 241 241 39 39 39 187 187 146 146 146 146 146
 7 7 7 224 224 224 224 224 224 12 182 182 88 88 88 88 241 241 241 39
 39 39 39 185 146 146 146 146 7 7 7 104 224 224 224 224 12 12 12 12
 88 88 88 88 88 93 241 241 241 241 39 39 185 185 185 146 146 7 104 104
 104 104 224 224 12 12 12 12 12 90 88 88 88 88 241 241 241 241 241 241
 149 185 185 185 185 185 40 40 104 104 104 104 224 12 12 12 12 12 90 88
 88 88 88 241 241 241 241 241 149 149 149 185 185 185 185 40 40 152 152 152
 152 227 12 12 12 12 12 90 9 88 88 88 241 241 241 241 149 149 149 149
 149 149 185 40 168 168 152 152 152 152 227 227 12 12 12 176 9 9 9 9
 6 6 6 241 78 149 149 149 149 149 149 168 168 168 168 152 152 152 227 227
 227 227 227 176 9 9 9 9 9 6 6 6 6 78 78 149 149 149 149 149
 168 168 168 168 168 152 152 227 227 227 227 227 176 9 9 9 9 9 6 6
 6 6 78 78 43 43 43 43 43 168 168 168 168 168 168 168 227 227 227 227
 227 176 9 9 9 9 9 6 6 6 51 51 51 51 43 43 43 43 168 168
 168 168 168 168 168 227 227 227 227 227 82 82 82 82 82 82 82 6 110 51
 51 51 51 51 43 43 73 73 73 73 73 168 168 42 42 42 227 227 227 82
 82 82 82 82 82 82 110 110 110 51 51 51 51 43 73 73 73 73 73 73
 73 42 42 42 42 42 42 183 183 82 82 82 82 82 82 110 110 110 110 51
 51 51 73 73 73 73 73 73 73 73 42 42 42 42 42 170 183 183 183 183
 82 82 82 110 110 110 110 110 110 51 73 73 73 73 73 73 73 73 239 42
 42 42 42 42 5 183 183 183 183 183 17 17 17 110 110 110 110 110 110 73
 73 73 73 73 73 73 73 239 42 42 42 42 5 5 5 183 183 183 183 89
 89 89 173 173 173 173 173 173 73 73 73 73 73 73 73 141 33 42 42 42
 5 5 5 5 183 183 183 89 89 89 89 173 173 173 173 173 173 173 73 73
 73 73 73 33 33 33 33 42 42 5 5 5 5 5 138 89 89 89 89 89
 89 173 173 173 173 173 230 73 73 73 73 33 33 33 33 33 33 63 63 5
 5 5 138 138 138 89 89 89 89 89 22 22 22 127 127 230 142 142 33 33
 33 33 33 33 33 33 63 63 63 63 138 138 138 138 89 89 89 89 89 22
 22 22 22 22 142 142 142 142 33 33 33 33 33 33 33 63 63 63 63 138
 138 138 138 138 89 89 89 22 22 22 22 22 22 142 142 142 142 33 33 28
 28 33 33 33 63 63 63 63 138 138 138 138 138 89 89 89 22 22 22 22
 22 142 142 142 142 142 56 56 56 56 56 56 63 63 63 63 63 138 138 138
 138 138 38 38 38 38 22 22 22 22 142 142 142 142 56 56 56 56 56 56
 56 63 63 63 63 63 138 138 138 138 38 38 38 38 92 92 92 22 22 142
 142 142 142 56 56 56 56 98 98 98 98 195 63 63 167 138 108 108 108 38
 38 38 92 92 92 92 92 214 214 187 187 120 120 120 120 98 98 98 98 195
 195 195 167 167 182 182 182 182 182 38 92 92 92 92 92 214 214 214 187 187
 187 120 120 120 98 98 98 195 195 195 195 167 167 182 182 182 182 182 182 92
 92 92 92 92 214 214 187 187 187 187 120 146 146 146 98 98 195 195 224 224
 224 167 182 182 182 182 182 182 92 92 92 92 214 214 214 187 187 187 187 146
 146 146 146 146 7 224 224 224 224 224 224 182 182 182 182 182 182 92 92 92
 241 241 39 39 187 187 187 146 146 146 146 146 7 7 224 224 224 224 224 224
 182 182 182 182 182 88 88 93 93 93 241 39 39 39 187 187 146 146 146 146
 146 104 104 224 224 224 224 224 224 224 182 182 182 88 88 88 93 93 93 241
 39 39 39 39 187 146 146 146 146 146 104 104 104 224 224 224 224 224 12 12
 12 88 88 88 88 93 93 93 241 241 39 39 149 146 146 146 146 146 104 104
 104 104 104 224 224 224 12 12 12 12 12 88 88 88 93 93 93 241 241 241
 149 149 149 149 185 185 185 104 104 104 104 104 104 224 12 12 12 12 12 12
 231 88 88 93 93 93 241 241 149 149 149 149 149 149 185 185 40 104 104 104
 104 104 227 227 12 12 12 12 231 231 231 198 198 198 198 241 149 149 149 149
 149 149 149 149 40 168 152 152 152 152 227 227 227 227 227 12 12 9 9 9
 9 198 198 198 78 78 149 149 149 149 149 149 149 168 168 168 152 152 152 227
 227 227 227 227 227 9 9 9 9 9 198 198 198 78 78 78 149 149 149 149
 149 149 168 168 168 168 152 227 227 227 227 227 227 227 9 9 9 9 9 198
 198 198 78 78 78 78 149 149 149 149 168 168 168 168 168 155 155 227 227 227
 227 227 227 9 9 9 9 9 6 6 6 51 78 78 78 78 149 149 73 168
 168 73 168 168 155 155 155 227 227 227 227 227 9 9 9 9 9 82 6 125
 125 51 51 51 51 43 73 73 73 73 73 73 73 155 155 155 155 227 227 227
 183 82 82 82 82 82 82 110 125 125 125 51 51 51 73 73 73 73 73 73
 73 73 42 42 42 42 42 227 183 183 183 183 82 82 82 82 125 125 125 125
 51 51 51 73 73 73 73 73 73 239 239 42 42 42 42 42 42 183 183 183
 183 183 183 82 125 125 125 125 125 110 51 73 73 73 73 73 73 73 239 239
 42 42 42 42 42 5 183 183 183 183 183 183 86 86 125 125 125 125 127 127
 73 73 73 73 73 73 73 239 239 42 42 42 5 5 5 5 183 183 183 183
 86 86 86 86 127 127 127 127 127 73 73 73 73 73 73 141 141 141 42 42
 5 5 5 5 5 183 183 183 183 89 89 89 89 127 127 127 127 127 230 73
 73 73 73 73 141 141 141 141 42 5 5 5 5 5 5 183 215 215 89 89
 89 89 127 127 127 127 127 230 230 73 73 73 141 141 141 141 141 141 63 63
 63 5 5 138 138 215 215 89 89 89 89 127 127 127 127 127 230 230 230 33
 33 141 141 141 141 141 33 63 63 63 63 138 138 138 138 215 89 89 89 89
 22 22 22 127 127 230 142 142 56 56 33 33 33 33 33 63 63 63 63 63
 138 138 138 138 138 89 89 89 22 22 22 22 22 22 142 142 142 56 56 56
 56 56 33 33 63 63 63 63 63 138 138 138 138 138 38 38 38 22 22 22
 22 22 22 142 142 142 56 56 56 56 56 56 56 63 63 63 63 63 138 138
 138 138 38 38 38 38 38 38 22 22 22 142 142 142 56 56 56 56 56 56
 56 56 63 63 63 63 63 138 138 138 38 38 38 38 38 38 92 92 92 214
 214 214 56 56 56 56 56 56 56 56 56 63 63 63 63 167 138 138 138 38
 38 38 38 38 92 92 92 92 214 214 214 214 120 120 120 120 120 98 98 98
 195 195 167 167 167 167 182 182 182 38 38 92 92 92 92 92 214 214 214 214
 214 120 120 120 120 120 120 98 71 224 224 167 167 167 167 182 182 182 182 38
 92 92 92 92 92 214 214 214 214 214 214 120 120 120 146 146 71 224 224 224
 224 167 167 167 182 182 182 182 182 92 92 92 92 130 214 214 214 214 214 214
 146 146 146 146 146 224 224 224 224 224 224 167 167 182 182 182 182 182 92 92
 130 130 130 214 214 214 214 214 146 146 146 146 146 146 224 224 224 224 224 224
 224 167 182 182 182 182 88 93 93 93 93 130 130 119 214 214 214 146 146 146
 146 146 104 104 224 224 224 224 224 224 167 182 182 182 182 88 93 93 93 93
 93 130 119 119 119 214 146 146 146 146 146 104 104 104 224 224 224 224 224 12
 12 223 223 88 88 93 93 93 93 93 241 119 119 149 149 146 146 146 146 104
 104 104 104 104 224 224 224 12 12 12 12 231 231 88 93 93 93 93 93 241
 149 149 149 149 149 146 146 146 104 104 104 104 104 104 224 224 12 12 12 12
 231 231 231 198 93 93 198 198 149 149 149 149 149 149 149 69 69 104 104 104
 104 104 104 227 227 227 12 12 231 231 231 231 198 198 198 198 198 149 149 149
 149 149 149 149 149 149 104 104 104 104 104 227 227 227 227 227 12 231 231 231
 231 198 198 198 198 198 78 149 149 149 149 149 149 149 149 168 168 152 104 227
 227 227 227 227 227 227 231 231 231 231 198 198 198 198 78 78 78 149 149 149
 149 149 149 168 168 168 168 155 155 227 227 227 227 227 227 9 9 9 9 198
 198 198 198 78 78 78 78 149 149 149 149 149 168 168 168 155 155 155 155 227
 227 227 227 227 9 9 9 9 9 198 198 198 78 78 78 78 78 149 149 73