# vtk DataFile Version 2.0
Data set from ImportExport Version 6.5.171.b0b162591
ASCII

DATASET RECTILINEAR_GRID
DIMENSIONS 30 30 30
X_COORDINATES 30 float
-1.250000 1.250000 3.750000 6.250000 8.750000 11.250000 13.750000 16.250000 18.750000 21.250000 23.750000 26.250000 28.750000 31.250000 33.750000 36.250000 38.750000 41.250000 43.750000 46.250000 48.750000 
51.250000 53.750000 56.250000 58.750000 61.250000 63.750000 66.250000 68.750000 71.250000 
Y_COORDINATES 30 float
-1.250000 1.250000 3.750000 6.250000 8.750000 11.250000 13.750000 16.250000 18.750000 21.250000 23.750000 26.250000 28.750000 31.250000 33.750000 36.250000 38.750000 41.250000 43.750000 46.250000 48.750000 
51.250000 53.750000 56.250000 58.750000 61.250000 63.750000 66.250000 68.750000 71.250000 
Z_COORDINATES 30 float
-1.250000 1.250000 3.750000 6.250000 8.750000 11.250000 13.750000 16.250000 18.750000 21.250000 23.750000 26.250000 28.750000 31.250000 33.750000 36.250000 38.750000 41.250000 43.750000 46.250000 48.750000 
51.250000 53.750000 56.250000 58.750000 61.250000 63.750000 66.250000 68.750000 71.250000 
CELL_DATA 24389
SCALARS FeatureIds int 1
LOOKUP_TABLE default
 183 183 145 145 145 145 145 145 4 4 138 138 7 7 7 154 154 154 154 249
 249 249 249 249 60 60 60 60 60 102 102 102 145 145 145 145 145 4 4 4
 7 7 7 7 154 154 154 249 249 249 249 249 60 60 60 60 60 60 102 102
 102 43 43 43 43 4 4 4 4 7 7 7 7 154 154 154 154 249 249 249
 249 60 60 60 60 60 60 102 102 102 102 43 43 43 43 4 4 4 7 7
 7 7 7 154 154 154 249 82 82 249 60 60 60 60 60 102 102 102 102 102
 43 43 43 43 43 219 219 219 219 219 219 219 154 154 21 82 82 82 82 60
 60 60 60 60 102 102 102 102 102 102 43 43 43 219 219 219 219 219 219 219
 219 219 38 38 21 82 82 82 60 60 60 114 114 114 102 102 102 102 102 43
 43 43 13 13 13 13 219 219 219 219 38 38 38 38 21 21 114 114 114 114
 114 114 114 114 102 102 102 102 102 122 122 13 13 13 13 13 219 219 219 38
 33 33 33 33 198 198 114 114 114 114 114 114 114 114 102 102 122 122 122 122
 13 13 13 13 13 13 219 219 33 33 33 33 33 198 198 198 198 114 114 114
 114 114 107 107 107 122 122 122 122 122 26 26 26 26 26 26 33 33 33 33
 33 198 198 198 198 198 198 114 114 114 107 107 107 107 122 122 122 122 122 26
 26 26 26 26 26 84 84 84 33 33 198 198 198 198 198 198 198 114 107 107
 107 107 107 122 122 122 122 122 26 26 26 26 26 26 84 84 84 84 84 198
 198 198 198 198 198 198 114 107 107 107 107 107 122 122 122 122 1 1 26 26
 26 26 26 84 84 84 84 198 198 198 198 198 198 198 198 198 107 131 131 131
 131 122 122 122 1 1 1 1 26 26 26 26 84 84 84 84 198 198 228 228
 228 228 198 223 131 131 131 131 131 131 131 122 1 1 1 1 1 1 116 116
 116 246 246 246 246 246 228 228 228 228 228 223 223 223 131 131 131 131 131 131
 131 1 1 1 1 1 1 116 116 116 9 9 9 246 246 228 228 228 223 223
 223 223 223 131 131 131 131 131 131 131 1 1 1 1 1 1 116 116 162 9
 9 9 9 9 105 105 228 223 223 223 223 223 131 131 131 131 131 131 131 1
 1 1 1 1 1 116 162 162 162 9 9 9 9 105 105 105 223 223 146 167
 167 131 131 131 131 131 131 245 245 245 245 1 1 1 162 162 162 162 162 9
 9 9 119 105 235 235 167 167 167 167 131 131 131 131 131 245 245 245 245 245
 245 208 208 208 162 162 162 162 162 162 119 119 235 235 235 235 235 167 167 131
 131 131 131 128 151 151 245 245 151 151 208 208 208 96 162 162 162 162 162 161
 161 235 235 235 235 235 235 45 45 45 45 128 128 128 151 151 151 151 151 208
 208 208 96 96 162 162 162 40 40 235 235 235 235 235 235 45 45 45 45 45
 128 128 128 151 151 151 151 151 48 48 48 48 96 162 40 40 40 40 40 235
 235 235 235 45 45 45 45 45 45 128 128 128 151 151 151 151 48 48 48 48
 48 48 48 40 40 40 40 40 40 235 235 235 45 45 45 45 45 45 128 128
 128 220 220 220 220 48 48 48 48 48 48 48 40 40 40 40 40 40 229 229
 229 45 45 45 45 203 203 145 145 145 145 220 220 220 138 138 138 138 138 138
 40 40 40 40 40 40 40 229 229 229 203 203 203 203 203 203 145 145 145 145
 145 220 220 138 138 138 138 138 138 138 40 40 40 40 40 40 229 229 229 203
 203 203 203 203 203 145 145 145 145 145 145 138 138 138 138 138 138 7 7 154
 24 40 40 40 40 229 229 229 203 203 203 203 203 145 145 145 145 145 145 145
 145 138 138 138 138 7 7 154 154 154 154 249 249 249 229 229 229 203 203 203
 203 183 183 145 145 145 145 145 145 145 138 138 138 7 7 7 154 154 154 249
 249 249 249 249 249 249 60 60 60 60 183 183 43 43 43 43 43 145 4 4
 7 7 7 7 7 154 154 154 249 249 249 249 249 249 60 60 60 60 60 102
 102 43 43 43 43 43 43 4 4 7 7 7 7 7 154 154 154 249 249 249
 249 249 60 60 60 60 60 60 102 102 102 43 43 43 43 43 43 4 7 7
 7 7 7 154 154 154 249 249 249 121 121 60 60 60 60 60 60 102 102 102
 43 43 43 43 43 43 219 219 219 219 219 219 219 219 21 21 21 21 121 121
 60 60 60 60 60 114 114 102 102 102 43 43 43 43 43 219 219 219 219 219
 219 219 219 21 21 21 21 121 121 60 60 60 114 114 114 114 102 102 102 43
 43 43 43 13 13 13 13 219 219 219 219 219 21 21 21 21 21 121 60 114
 114 114 114 114 114 114 102 102 102 43 43 13 13 13 13 13 13 219 219 219
 33 33 33 33 33 198 198 114 114 114 114 114 114 114 114 114 102 122 122 122
 122 73 13 13 13 13 13 219 219 33 33 33 33 33 198 198 198 198 114 114
 114 114 114 107 107 107 122 122 122 122 26 26 26 26 26 26 26 84 33 33
 33 33 198 198 198 198 198 198 114 114 114 107 107 107 107 122 122 122 122 244
 26 26 26 26 26 26 84 84 84 84 84 198 198 198 198 198 198 198 114 107
 107 107 107 107 122 122 122 122 244 244 26 26 26 26 84 84 84 84 84 84
 198 198 198 198 198 198 198 114 107 107 107 107 107 122 122 122 122 1 244 26
 26 26 26 26 84 84 84 84 84 198 198 198 198 198 198 198 198 107 131 131
 131 131 122 122 122 1 1 1 1 26 26 26 26 84 84 84 84 84 198 228
 228 228 228 228 198 131 131 131 131 131 131 131 176 176 1 1 1 1 1 1
 26 26 246 246 246 246 246 228 228 228 228 228 228 223 131 131 131 79 131 131
 131 176 176 1 1 1 1 1 1 1 246 246 246 246 246 246 105 228 228 228
 228 223 223 131 131 131 131 131 131 131 176 176 1 1 1 1 1 1 1 162
 246 246 246 246 105 105 105 105 223 223 223 223 131 131 131 131 131 131 131 176
 176 1 1 1 1 1 1 162 162 162 162 162 246 105 105 105 105 105 223 233
 233 131 131 131 131 131 131 131 245 245 245 245 1 1 1 162 162 162 162 162
 162 162 119 119 105 105 235 235 233 233 131 131 131 131 131 131 245 245 245 245
 245 245 1 208 162 162 162 162 162 162 162 119 119 119 235 235 235 233 233 233
 131 131 131 128 128 151 151 151 151 151 151 208 208 208 162 162 162 162 162 162
 161 161 161 235 235 235 235 233 233 2 2 2 128 128 128 151 151 151 151 151
 48 48 48 162 162 162 162 162 162 161 161 161 235 235 235 235 2 2 2 2
 2 128 128 128 128 151 151 151 48 48 48 48 48 162 162 162 40 40 40 161
 235 235 235 235 235 2 2 2 45 45 128 128 128 128 151 151 151 48 48 48
 48 48 48 162 40 40 40 40 40 40 235 235 235 45 2 2 2 203 203 128
 128 128 128 128 220 220 48 48 48 48 48 48 48 40 40 40 40 40 229 229
 229 229 203 203 203 203 203 203 128 145 145 145 145 145 138 138 138 138 48 48
 48 48 40 40 40 40 40 229 229 229 229 203 203 203 203 203 203 145 145 145
 145 145 145 138 138 138 138 138 138 138 24 24 24 40 40 40 229 229 229 229
 203 203 203 203 203 203 145 145 145 145 145 145 138 138 138 138 138 7 7 7
 24 24 24 40 249 229 229 229 229 203 203 203 203 203 145 145 145 145 145 145
 145 138 138 138 138 138 7 7 154 154 154 154 249 249 249 249 249 229 203 203
 203 203 183 183 183 145 145 145 145 145 145 138 138 7 7 7 7 154 154 154
 249 249 249 249 249 249 249 249 60 60 183 183 183 183 43 43 43 43 43 43
 138 7 7 7 7 7 154 154 154 249 249 249 249 249 249 60 60 60 60 183
 183 183 43 43 43 43 43 43 43 7 7 7 7 7 7 154 154 154 249 249
 249 249 249 249 60 60 60 60 60 183 183 43 43 43 43 43 43 43 7 7
 7 7 7 7 154 154 154 21 249 121 121 121 60 60 60 60 60 60 102 102
 102 43 43 43 43 43 43 43 219 219 219 219 219 219 219 21 21 21 21 121
 121 60 60 60 60 60 114 114 114 102 155 155 155 155 43 43 219 219 219 219
 219 219 219 219 21 21 21 21 121 121 60 60 60 114 114 114 114 114 102 155
 155 155 155 155 13 13 13 13 219 219 219 219 219 21 21 21 21 21 121 60
 114 114 114 114 114 114 114 114 155 155 155 155 155 13 13 13 13 13 219 219
 219 33 33 33 21 21 21 198 114 114 114 114 114 114 114 114 114 114 122 122
 122 73 73 73 13 13 13 13 219 219 33 33 33 33 33 198 198 198 198 114
 114 114 114 114 107 107 107 122 122 122 73 73 73 73 26 26 26 84 84 84
 33 33 33 198 198 198 198 198 114 114 114 114 107 107 107 107 122 122 122 244
 244 244 26 26 26 26 84 84 84 84 84 84 198 198 198 198 198 198 114 114
 107 107 107 107 107 122 122 122 244 244 244 26 26 26 26 84 84 84 84 84
 84 198 198 198 198 198 198 198 114 107 107 107 107 122 122 122 122 122 244 244
 26 26 26 26 84 84 84 84 84 84 198 198 198 198 198 198 198 198 107 131
 131 131 131 122 122 176 176 1 1 1 26 26 26 84 84 84 84 84 84 198
 228 228 228 228 228 198 131 131 131 131 131 131 131 176 176 176 1 1 1 1
 1 1 246 246 246 246 246 246 246 228 228 228 228 228 223 131 131 131 131 131
 131 131 176 176 176 1 1 1 1 1 1 246 246 246 246 246 246 105 105 228
 228 228 228 223 131 131 131 131 131 131 131 176 176 176 1 1 1 1 1 1
 162 246 246 246 246 105 105 105 105 105 223 223 223 131 131 131 131 131 131 131
 176 176 176 1 1 1 1 1 162 162 162 162 246 246 105 105 105 105 105 233
 233 233 131 131 131 131 131 131 131 188 188 188 188 188 1 1 162 162 162 162
 162 162 162 105 105 105 105 105 233 233 233 233 131 131 131 131 131 188 188 188
 188 188 188 1 162 162 162 162 162 162 162 162 119 119 119 119 235 233 233 233
 233 131 76 131 128 128 151 151 188 188 188 188 188 48 162 162 162 162 162 162
 162 161 161 161 235 235 235 233 233 233 76 76 76 128 128 128 151 151 151 151
 151 48 48 48 162 162 162 162 162 162 161 161 161 235 235 235 233 76 76 76
 76 76 128 128 128 128 151 151 151 48 48 48 48 48 162 162 162 162 161 161
 161 161 235 235 235 76 76 76 76 76 76 128 128 128 128 128 151 151 48 48
 48 48 48 48 162 162 162 40 161 161 161 235 235 235 76 76 76 76 76 76
 128 128 128 128 128 151 48 48 48 48 48 48 48 162 24 24 40 40 40 229
 229 229 229 76 76 76 76 203 203 128 128 128 145 145 145 138 138 138 48 48
 48 48 24 24 24 24 40 40 229 229 229 229 203 203 203 203 203 203 145 145
 145 145 145 145 138 138 138 138 138 138 7 24 24 24 24 24 40 229 229 229
 229 203 203 203 203 203 203 145 145 145 145 145 145 138 138 138 138 138 7 7
 24 24 24 24 249 249 249 249 229 229 203 203 203 203 183 183 145 145 145 145
 145 145 138 138 138 138 7 7 7 154 154 24 24 249 249 249 249 249 229 46
 203 203 203 183 183 183 183 145 145 145 145 145 182 182 7 7 7 7 154 154
 154 249 249 249 249 249 249 249 46 46 183 183 183 183 183 43 43 43 43 43
 43 196 7 7 7 7 7 154 154 154 249 249 249 249 249 249 249 60 60 183
 183 183 183 183 43 43 43 43 43 43 7 7 7 7 7 7 154 154 154 249
 249 249 249 249 249 60 60 60 60 183 183 183 183 43 43 43 43 43 43 43
 7 7 7 7 7 7 154 21 21 21 121 121 121 121 60 60 60 60 183 183
 183 43 43 43 43 43 43 43 43 219 219 219 219 219 219 219 21 21 21 121
 121 121 121 60 60 60 60 183 114 114 155 155 155 155 155 155 155 12 12 219
 219 219 219 219 219 21 21 21 21 121 121 121 60 60 114 114 114 114 114 155
 155 155 155 155 155 155 12 12 12 219 219 219 219 219 21 21 21 21 21 121
 121 114 114 114 114 114 114 114 114 155 155 155 155 155 73 12 12 12 12 219
 219 219 129 129 21 21 21 21 198 114 114 114 114 114 114 114 114 114 155 155
 155 155 73 73 73 73 12 12 12 219 129 129 129 129 129 21 198 198 198 198
 114 114 114 114 114 107 107 107 122 122 122 73 73 73 73 73 26 26 84 84
 84 84 84 84 84 198 198 198 198 114 114 114 114 107 107 107 107 122 122 122
 244 244 244 244 26 26 26 84 84 84 84 84 84 84 198 198 198 198 198 114
 174 174 107 107 107 107 122 122 122 244 244 244 244 26 26 26 84 84 84 84
 84 84 84 198 198 198 198 198 198 174 107 107 107 131 122 122 122 217 217 244
 244 244 26 26 26 84 84 84 84 84 84 84 198 198 198 198 198 198 198 107
 131 131 131 131 122 217 217 217 176 244 244 26 26 26 84 84 84 84 84 84
 84 198 228 228 228 198 198 131 131 131 131 131 131 131 176 176 176 176 1 1
 1 1 1 246 246 246 246 246 246 246 228 228 228 228 228 131 131 131 131 131
 131 131 131 176 176 176 176 1 1 1 1 1 246 246 246 246 246 246 105 105
 105 228 228 228 131 131 131 131 131 131 131 131 176 176 176 176 1 1 1 1
 162 162 246 246 246 246 246 105 105 105 105 105 233 233 131 131 131 131 131 131
 131 176 176 176 176 1 1 1 162 162 162 162 162 246 246 105 105 105 105 105
 233 233 233 131 131 131 131 131 131 188 188 188 188 188 188 1 162 162 162 162
 162 162 162 162 105 105 105 105 105 233 233 233 233 131 131 131 131 131 188 188
 188 188 188 188 188 162 162 162 162 162 162 162 162 119 119 119 119 233 233 233
 233 233 233 76 76 190 128 188 188 188 188 188 188 188 162 162 162 162 162 162
 162 162 161 161 161 161 235 233 233 233 233 233 76 76 190 128 128 188 188 188
 188 188 48 48 48 162 162 162 162 162 162 161 161 161 161 235 235 233 76 76
 76 76 76 190 128 128 128 128 151 151 48 48 48 48 48 162 162 162 162 161
 161 161 161 161 235 235 76 76 76 76 76 76 128 128 128 128 128 151 234 48
 48 48 48 48 162 162 162 162 161 161 161 161 161 235 76 76 76 76 76 76
 76 128 128 128 128 128 128 48 48 48 48 48 48 147 24 24 24 24 161 161
 229 229 229 229 76 76 76 76 76 76 128 128 128 128 145 145 145 182 182 182
 182 182 147 24 24 24 24 24 24 229 229 229 229 76 76 76 76 203 203 145
 145 145 145 145 145 145 182 182 182 182 182 182 24 24 24 24 24 24 229 229
 229 46 46 46 203 203 183 183 145 145 145 145 145 145 138 182 182 182 182 182
 7 24 24 24 24 24 249 249 249 46 46 46 46 46 203 183 183 183 145 145
 145 145 145 145 182 182 182 182 7 7 7 24 24 24 249 249 249 249 249 46
 46 46 46 183 183 183 183 183 183 145 43 196 182 182 182 182 182 7 7 154
 154 175 175 175 249 249 249 249 46 46 46 183 183 183 183 183 183 43 43 43
 43 196 196 182 182 7 7 7 154 154 175 175 175 249 249 249 249 249 60 46
 183 183 183 183 183 43 43 43 43 43 43 196 196 7 7 7 7 154 154 175
 175 175 249 249 249 249 249 60 60 183 183 183 183 183 43 43 43 43 43 43
 196 196 7 7 7 7 7 154 21 21 121 121 121 121 121 60 60 60 183 183
 183 183 183 43 43 43 43 43 43 12 12 219 219 219 219 219 21 21 21 21
 121 121 121 121 60 60 60 183 183 183 177 155 155 155 155 155 43 43 12 12
 12 12 219 219 219 21 21 21 21 21 121 121 121 60 60 114 114 114 114 177
 177 155 155 155 155 155 12 12 12 12 12 12 219 219 21 21 21 21 21 21
 121 121 114 114 114 114 114 114 114 177 155 155 155 155 143 143 12 12 12 12
 12 219 129 129 129 129 21 21 21 121 174 174 174 174 114 114 174 174 177 155
 155 155 143 143 143 143 12 12 12 12 12 129 129 129 129 129 21 21 198 198
 174 174 174 174 174 174 174 107 107 122 122 143 143 143 143 143 12 12 12 129
 129 129 129 129 129 129 198 198 198 198 174 174 174 174 174 107 107 107 122 122
 217 244 244 244 143 143 26 26 84 84 84 84 84 84 84 198 198 198 198 174
 174 174 174 174 107 107 107 217 217 217 217 244 244 244 244 26 26 84 84 84
 84 84 84 84 198 198 198 198 174 174 174 174 174 107 131 217 217 217 217 217
 217 244 244 244 26 26 84 84 84 84 84 84 84 59 59 59 59 59 174 174
 174 131 131 131 131 217 217 217 217 217 217 244 244 26 84 84 84 84 84 84
 84 84 59 59 59 59 59 59 131 131 131 131 131 131 217 217 217 217 217 217
 217 1 1 246 246 246 246 246 246 246 246 59 59 59 59 59 59 131 131 131
 131 131 131 131 176 176 176 176 176 1 1 1 246 246 246 246 246 246 246 105
 105 105 59 59 59 131 131 131 131 131 131 131 23 176 176 176 176 176 1 1
 1 162 162 162 246 246 246 246 105 105 105 105 105 233 233 131 131 131 131 131
 131 23 23 176 176 176 176 1 1 162 162 162 162 162 246 246 105 105 105 105
 105 233 233 233 233 131 131 131 131 23 23 188 188 188 188 188 188 162 162 162
 162 162 162 162 162 105 105 105 105 105 233 233 233 233 233 131 131 131 132 23
 188 188 188 188 188 188 162 162 162 162 162 162 162 162 119 119 119 119 233 233
 233 233 233 233 76 190 190 190 188 188 188 188 188 188 188 162 162 162 162 162
 162 162 162 161 161 161 161 161 233 233 233 76 76 76 190 190 190 190 188 188
 188 188 188 188 48 162 162 162 162 162 162 162 161 161 161 161 161 233 76 76
 76 76 76 190 190 190 190 190 188 234 234 234 48 48 48 199 199 199 199 199
 199 161 161 161 161 161 235 76 76 76 76 76 190 190 190 190 190 234 234 234
 234 48 48 48 147 199 199 199 199 87 161 161 161 161 161 76 76 76 76 76
 76 190 190 190 190 128 128 234 234 182 182 182 182 147 147 147 199 24 24 161
 161 161 229 229 229 76 76 76 76 76 190 190 190 190 128 145 234 182 182 182
 182 182 147 147 147 24 24 24 24 134 134 229 46 46 46 46 76 76 203 190
 190 145 145 145 145 145 182 182 182 182 182 182 147 24 24 24 24 24 249 249
 229 46 46 46 46 46 203 183 183 183 145 145 145 145 145 182 182 182 182 182
 182 182 24 24 24 24 24 249 249 249 46 46 46 46 46 46 183 183 183 183
 145 145 145 145 182 182 182 182 182 182 7 7 24 24 24 249 249 249 249 249
 46 46 46 46 183 183 183 183 183 183 43 196 196 196 196 182 182 182 182 7
 154 175 175 175 175 175 249 249 249 46 46 46 46 183 183 183 183 183 43 43
 43 196 196 196 196 196 182 182 7 154 175 175 175 175 175 249 249 249 249 46
 46 183 183 183 183 183 183 43 43 43 43 196 196 196 196 7 7 7 154 175
 175 175 175 175 249 249 249 249 60 183 183 183 183 183 183 43 43 43 43 43
 196 196 196 196 20 20 20 20 175 175 175 175 121 121 121 121 60 60 183 183
 183 183 177 177 43 43 43 43 43 43 196 12 12 12 20 20 20 117 21 21
 21 121 121 121 121 60 60 183 183 183 177 177 177 177 155 155 43 43 166 12
 12 12 12 20 20 20 117 117 21 21 21 121 121 121 174 174 170 170 183 177
 177 177 177 155 155 155 166 12 12 12 12 12 12 20 129 117 117 21 21 21
 21 121 174 174 174 170 170 170 177 177 177 177 155 155 155 143 143 12 12 12
 12 12 12 129 129 129 129 129 21 21 121 174 174 174 174 170 170 174 174 177
 177 155 155 143 143 143 143 12 12 12 12 12 129 129 129 129 129 129 129 174
 174 174 174 174 174 174 174 174 174 232 232 143 143 143 143 143 143 12 12 12
 129 129 129 129 129 129 129 198 198 174 174 174 174 174 174 174 174 174 232 232
 217 217 143 143 143 143 143 12 12 129 129 129 129 129 129 129 198 198 198 198
 174 174 174 174 174 174 232 232 232 217 217 217 217 244 244 244 26 84 84 84
 84 84 84 84 84 59 59 59 59 174 174 174 174 174 174 232 232 232 217 217
 217 217 217 244 244 26 19 84 84 84 84 84 84 84 59 59 59 59 59 174
 174 174 174 131 131 232 232 217 217 217 217 217 217 217 19 19 19 19 84 84
 84 84 59 59 59 59 59 59 174 174 174 131 131 131 131 217 217 217 217 217
 217 217 217 19 19 19 19 19 246 246 246 59 59 59 59 59 59 59 174 131
 131 131 131 23 23 23 217 217 217 217 217 217 19 19 19 19 19 246 246 246
 105 59 59 59 59 59 59 131 131 131 131 131 23 23 23 23 176 176 176 1
 1 19 19 19 19 19 246 246 246 105 105 105 105 59 59 233 131 131 131 131
 131 23 23 23 23 176 176 176 1 239 162 162 162 162 162 156 246 105 105 105
 105 105 233 233 233 233 131 139 139 139 23 23 23 23 188 188 188 188 162 162
 162 162 162 162 162 162 105 105 105 105 105 233 233 233 233 233 139 139 132 132
 132 132 132 188 188 188 188 162 162 162 162 162 162 162 162 119 119 119 119 233
 233 233 233 233 233 139 139 190 132 132 132 132 188 188 188 188 158 162 162 162
 162 199 87 87 87 119 119 119 3 3 3 3 76 76 76 190 190 190 190 132
 234 234 234 234 234 158 199 199 199 199 199 87 87 87 161 161 161 3 3 3
 3 76 76 76 190 190 190 190 190 234 234 234 234 234 158 199 199 199 199 199
 87 87 87 161 161 161 3 3 3 3 76 76 76 190 190 190 190 190 234 234
 234 234 234 147 147 147 199 199 199 199 87 87 161 161 161 3 3 3 76 76
 76 76 190 190 190 190 190 234 234 234 234 182 182 147 147 147 147 199 199 87
 87 134 134 134 46 46 76 76 76 76 76 190 190 190 190 190 234 234 234 182
 182 182 182 147 147 147 147 24 24 134 134 134 134 46 46 46 46 46 76 183
 190 190 190 190 190 234 191 191 182 182 182 182 147 147 147 24 24 24 24 134
 134 46 46 46 46 46 46 46 183 183 183 183 145 145 145 191 191 182 182 182
 182 182 147 147 24 24 24 24 249 249 46 46 46 46 46 46 46 183 183 183
 183 183 145 145 191 191 182 182 182 182 182 147 147 24 24 175 175 249 249 249
 46 46 46 46 46 183 183 183 183 183 183 43 196 196 196 196 196 182 182 182
 182 182 175 175 175 175 175 249 249 249 46 46 46 46 183 183 183 183 183 43
 43 196 196 196 196 196 196 182 182 182 182 175 175 175 175 175 249 249 249 249
 46 46 183 183 183 183 183 183 43 43 43 196 196 196 196 196 196 20 20 20
 175 175 175 175 175 249 249 249 90 241 183 183 183 183 183 183 183 43 43 43
 43 196 196 196 196 20 20 20 20 117 117 175 175 175 121 121 90 90 241 183
 183 183 177 177 177 177 43 43 166 166 166 196 196 20 20 20 20 20 117 117
 117 21 121 121 121 90 104 104 170 183 177 177 177 177 177 177 166 166 166 166
 12 12 12 20 20 20 20 117 117 117 117 21 121 121 104 104 170 170 170 177
 177 177 177 177 177 166 166 166 166 12 12 12 12 20 20 20 117 117 117 117
 21 21 130 170 170 170 170 170 170 170 177 177 177 177 166 166 166 143 12 12
 12 12 12 20 129 129 129 129 129 21 159 159 174 174 174 170 170 170 174 174
 177 177 232 166 143 143 143 143 12 12 12 12 20 129 129 129 129 129 129 159
 159 174 174 174 174 174 174 174 174 174 232 232 232 143 143 143 143 143 12 12
 12 129 129 129 129 129 129 129 159 159 174 174 174 174 174 174 174 174 174 232
 232 232 217 217 143 143 143 143 12 12 129 129 129 129 129 129 129 159 159 59
 174 174 174 174 174 174 174 232 232 232 232 217 217 217 217 217 143 12 19 129
 129 129 129 129 129 129 59 59 59 59 174 174 174 174 174 174 232 232 232 232
 217 217 217 217 217 217 19 19 19 19 84 84 84 84 84 59 59 59 59 59
 174 174 174 174 232 232 232 232 232 217 217 217 217 217 217 19 19 19 19 19
 19 84 84 59 59 59 59 59 59 174 174 174 131 232 232 232 232 232 217 217
 217 217 217 217 19 19 19 19 19 19 19 19 59 59 59 59 59 59 149 37
 37 131 131 23 23 23 23 217 217 217 217 217 217 19 19 19 19 19 19 19
 19 105 59 59 59 59 59 37 37 37 139 139 23 23 23 23 23 23 176 217
 217 239 19 19 19 19 19 156 156 156 105 105 227 227 227 227 37 37 37 139
 139 139 23 23 23 23 23 23 217 239 239 19 19 19 19 156 156 156 156 105
 105 227 227 227 227 37 37 37 139 139 139 132 23 23 132 132 188 188 239 239
 239 162 162 162 156 156 156 156 105 105 227 227 227 233 233 233 139 139 139 139
 132 132 132 132 132 188 188 158 158 158 199 199 199 199 87 87 87 119 119 119
 3 3 3 3 3 139 139 139 139 132 132 132 132 132 188 234 158 158 158 199
 199 199 199 87 87 87 87 119 119 3 3 3 3 3 3 139 190 190 190 132
 132 234 234 234 234 234 158 158 158 199 199 199 87 87 87 161 161 161 3 3
 3 3 3 76 76 190 190 190 190 234 234 234 234 234 234 158 158 199 199 199
 199 87 87 87 161 161 161 3 3 3 3 3 76 76 190 190 190 190 234 234
 234 234 234 234 147 147 147 199 199 199 87 87 87 87 134 134 3 3 3 3
 3 76 190 190 190 190 190 234 234 234 234 234 182 147 147 147 147 147 199 199
 87 87 134 134 134 134 3 3 3 76 76 190 190 190 190 190 234 234 234 234
 191 182 182 147 147 147 147 147 199 24 134 134 134 134 134 46 46 46 46 76
 183 190 190 190 190 234 234 191 191 191 182 182 182 147 147 147 147 24 24 134
 134 134 134 46 46 46 46 46 46 183 183 183 183 36 36 191 191 191 191 182
 182 182 182 147 147 147 24 24 175 134 134 46 46 46 46 46 46 46 183 183
 183 183 36 36 36 191 191 191 182 182 182 182 147 147 147 238 175 175 249 249
 249 46 46 46 46 46 183 183 183 183 183 183 36 196 196 196 196 196 196 182
 182 182 182 238 238 175 175 175 249 249 249 46 46 241 241 241 183 183 183 183
 183 196 196 196 196 196 196 196 196 196 196 196 117 175 175 175 175 249 249 90
 241 241 241 241 241 183 183 183 183 43 43 196 196 196 196 196 196 196 20 20
 20 117 117 175 175 175 90 90 90 90 241 241 241 183 183 177 177 177 43 166
 166 166 196 196 196 196 20 20 20 20 117 117 117 175 175 90 90 90 90 241
 241 241 183 177 177 177 177 166 166 166 166 166 166 196 20 20 20 20 20 117
 117 117 117 117 90 90 90 104 104 104 104 177 177 177 177 177 166 166 166 166
 166 166 12 20 20 20 20 20 117 117 117 117 117 90 90 104 104 104 170 170
 177 177 177 177 177 166 166 166 166 166 166 12 12 20 20 20 20 117 117 117
 117 117 130 130 104 104 170 170 170 170 170 177 177 177 166 166 166 166 166 166
 97 97 12 20 20 214 214 214 214 214 159 159 159 174 174 174 170 170 170 174
 174 177 177 166 166 166 143 143 143 97 97 97 97 20 129 129 129 129 129 159
 159 159 159 174 174 174 174 174 174 174 174 232 232 232 115 143 143 143 143 97
 97 97 129 129 129 129 129 129 159 159 159 159 174 174 174 174 174 174 174 232
 232 232 232 115 115 143 143 143 143 97 97 129 129 129 129 129 129 159 159 159
 159 174 174 174 174 174 174 174 232 232 232 232 232 115 217 217 143 143 19 19
 19 19 129 129 129 129 159 159 159 59 149 174 174 174 174 174 174 232 232 232
 232 232 217 217 217 217 217 19 19 19 19 53 53 53 53 159 59 59 59 149
 149 149 174 174 174 232 232 232 232 232 232 217 217 217 217 217 19 19 19 19
 19 53 53 53 59 59 59 59 149 149 149 149 174 37 232 232 232 232 232 232
 217 217 217 217 19 19 19 19 19 19 19 53 53 53 59 59 59 149 149 149
 37 37 37 232 232 232 23 23 23 217 217 217 217 19 19 19 19 19 19 19
 19 19 19 227 227 59 149 37 37 37 37 139 139 23 23 23 23 23 23 217
 217 239 239 239 19 19 19 19 156 156 156 156 227 227 227 227 37 37 37 37
 139 139 139 23 23 23 23 23 23 23 239 239 239 239 19 19 156 156 156 156
 156 227 227 227 227 227 37 37 37 139 139 139 132 132 23 132 132 132 132 239
 239 239 239 239 156 156 156 156 156 156 227 227 227 227 227 3 37 139 139 139
 139 132 132 132 132 132 132 132 158 158 158 199 199 199 199 87 87 87 178 178
 178 3 3 3 3 3 139 139 139 139 132 132 132 132 132 132 234 158 158 158
 158 199 199 199 87 87 87 178 178 178 3 3 3 3 201 201 201 139 139 132
 132 132 234 234 234 234 234 158 158 158 199 199 199 87 87 87 178 178 178 3
 3 3 3 201 201 201 190 190 190 190 234 234 234 234 234 234 158 158 158 199
 199 199 87 87 87 178 178 178 3 3 3 3 201 201 201 190 190 190 190 234
 234 234 234 234 234 207 147 147 199 199 199 87 87 87 134 134 157 157 157 3
 3 201 201 190 190 190 190 190 234 234 234 234 234 207 147 147 147 147 147 199
 87 87 134 134 134 134 157 157 157 3 201 201 5 5 5 5 5 234 234 234
 234 191 147 147 147 147 147 147 147 238 238 134 134 134 134 134 46 46 46 46
 46 5 5 5 5 36 36 36 191 191 191 191 182 147 147 147 147 147 238 238
 238 134 134 134 46 46 46 46 46 46 183 183 5 5 36 36 36 191 191 191
 191 182 182 147 147 147 147 238 238 238 134 134 134 46 46 46 46 46 46 183
 183 183 36 36 36 36 191 191 191 191 182 182 182 147 147 238 238 238 238 238
 134 134 46 46 46 46 241 241 41 41 41 41 36 36 36 196 196 196 196 196
 182 182 182 238 238 238 238 238 238 249 90 90 241 241 241 241 241 41 41 41
 41 36 36 196 196 196 196 196 196 196 196 20 238 238 238 238 238 64 90 90
 90 90 241 241 241 241 41 41 41 41 41 166 166 196 196 196 196 196 196 20
 20 20 117 117 189 64 90 90 90 90 90 241 241 241 241 177 177 177 177 166
 166 166 166 166 196 196 196 20 20 20 20 117 117 189 189 90 90 90 90 90
 104 241 241 241 177 177 177 177 166 166 166 166 166 166 166 20 20 20 20 20
 117 117 117 189 189 90 90 90 104 104 104 104 177 177 177 177 177 166 166 166
 166 166 166 97 97 20 20 20 20 117 117 117 189 189 90 130 104 104 104 104
 170 177 177 177 177 177 166 166 166 166 166 166 97 97 97 20 20 214 214 214
 214 214 214 130 130 104 104 104 170 170 170 170 177 177 177 166 166 166 166 166
 166 97 97 97 97 20 214 214 214 214 214 159 159 130 130 104 174 170 170 170
 174 174 177 177 166 166 166 166 166 97 97 97 97 97 20 214 214 214 214 214
 159 159 159 130 174 174 174 174 174 174 174 174 232 232 115 115 115 115 97 97
 97 97 97 135 135 135 135 135 159 159 159 159 159 174 174 174 174 174 174 174
 232 232 232 115 115 115 115 115 143 97 97 97 135 135 135 135 135 135 159 159
 159 159 174 174 174 174 174 174 174 232 232 232 232 115 115 115 115 115 97 97
 19 19 53 53 53 53 53 159 159 159 159 149 149 186 186 186 186 174 232 232
 232 232 232 115 115 115 115 115 19 19 19 53 53 53 53 53 159 159 159 149
 149 149 149 186 186 186 232 232 232 232 232 232 232 115 115 115 19 19 19 19
 19 53 53 53 53 53 59 59 149 149 149 149 149 186 37 232 232 232 232 232
 232 232 217 217 217 19 19 19 19 19 19 53 53 53 53 53 149 149 149 149
 149 37 37 37 37 232 232 232 23 23 23 217 217 239 239 239 19 19 19 19
 19 53 53 99 99 227 149 149 37 37 37 37 37 37 23 23 23 23 23 23
 23 23 239 239 239 239 19 19 19 156 156 99 99 99 227 227 227 37 37 37
 37 139 139 139 23 23 23 23 23 23 23 239 239 239 239 239 19 156 156 156
 99 99 99 227 227 227 37 37 37 37 139 139 139 139 132 23 23 132 132 132
 239 239 239 239 239 239 156 156 156 99 99 99 227 227 227 227 37 37 139 139
 139 139 139 132 132 132 132 132 132 239 239 239 239 199 199 199 87 87 87 178
 178 178 3 3 3 3 201 201 139 139 139 132 132 132 132 132 132 234 158 158
 158 199 199 199 199 87 87 87 178 178 178 3 3 3 3 201 201 201 139 139
 132 132 132 234 234 234 234 234 158 158 158 199 199 199 87 87 87 178 178 178
 3 3 3 3 201 201 201 139 190 190 190 234 234 234 234 234 207 207 158 199
 199 199 199 87 87 87 178 178 178 157 3 3 201 201 201 201 5 5 5 5
 234 234 234 234 234 207 207 207 207 199 199 199 87 87 87 178 178 157 157 157
 157 201 201 201 5 5 5 5 5 234 234 234 234 234 207 207 147 147 147 147
 199 87 87 87 134 134 157 157 157 157 201 201 201 5 5 5 5 5 5 234
 234 234 191 207 207 147 147 147 147 147 238 238 238 134 134 134 134 157 46 46
 46 201 5 5 5 5 5 36 36 191 191 191 191 207 147 147 147 147 238 238
 238 238 134 134 134 134 46 46 46 46 46 41 5 5 5 36 36 36 191 191
 191 191 191 147 147 147 147 238 238 238 238 238 134 134 46 46 46 46 241 241
 41 41 41 36 36 36 36 36 191 191 191 191 182 182 147 147 238 238 238 238
 238 238 134 46 46 46 241 241 241 41 41 41 41 36 36 36 196 196 196 196
 44 44 44 44 238 238 238 238 238 64 64 90 90 241 241 241 241 241 41 41
 41 41 36 36 36 196 196 196 196 44 44 44 44 189 64 64 64 64 64 90
 90 90 90 241 241 241 241 41 41 41 41 41 166 166 166 196 196 196 44 44
 44 20 189 189 189 64 64 64 90 90 90 90 241 241 241 241 41 41 41 41
 166 166 166 166 166 166 196 44 44 20 20 189 189 189 189 189 189 90 90 90
 90 104 241 241 241 177 177 177 177 166 166 166 166 166 166 166 20 20 20 189
 189 189 189 189 189 189 90 90 90 104 104 104 104 177 177 177 177 177 166 166
 166 166 166 166 97 97 97 20 189 189 189 189 189 189 189 130 130 104 104 104
 104 104 177 177 177 177 177 166 166 166 166 166 166 97 97 97 97 189 214 214
 214 214 214 189 130 130 130 104 104 104 170 170 170 177 177 177 166 166 166 166
 166 97 97 97 97 97 20 214 214 214 214 214 159 159 130 130 130 104 174 174
 170 174 174 177 177 166 166 166 166 166 97 97 97 97 97 97 214 214 214 214