# vtk DataFile Version 2.0
Data set from ImportExport Version 6.5.171.b0b162591
ASCII

DATASET RECTILINEAR_GRID
DIMENSIONS 30 30 30
X_COORDINATES 30 float
-1.250000 1.250000 3.750000 6.250000 8.750000 11.250000 13.750000 16.250000 18.750000 21.250000 23.750000 26.250000 28.750000 31.250000 33.750000 36.250000 38.750000 41.250000 43.750000 46.250000 48.750000 
51.250000 53.750000 56.250000 58.750000 61.250000 63.750000 66.250000 68.750000 71.250000 
Y_COORDINATES 30 float
-1.250000 1.250000 3.750000 6.250000 8.750000 11.250000 13.750000 16.250000 18.750000 21.250000 23.750000 26.250000 28.750000 31.250000 33.750000 36.250000 38.750000 41.250000 43.750000 46.250000 48.750000 
51.250000 53.750000 56.250000 58.750000 61.250000 63.750000 66.250000 68.750000 71.250000 
Z_COORDINATES 30 float
-1.250000 1.250000 3.750000 6.250000 8.750000 11.250000 13.750000 16.250000 18.750000 21.250000 23.750000 26.250000 28.750000 31.250000 33.750000 36.250000 38.750000 41.250000 43.750000 46.250000 48.750000 
51.250000 53.750000 56.250000 58.750000 61.250000 63.750000 66.250000 68.750000 71.250000 
CELL_DATA 24389
SCALARS FeatureIds int 1
LOOKUP_TABLE default
 87 87 87 87 87 87 208 208 208 208 208 208 62 62 62 62 6 188 188 188
 188 75 75 75 75 75 75 75 75 87 87 87 87 87 87 208 208 208 208 208
 208 62 62 62 6 6 6 188 188 75 75 75 75 75 75 75 75 75 114 114
 87 87 87 87 208 208 208 208 208 121 62 62 6 6 6 6 6 158 75 75
 75 75 75 75 75 75 75 114 114 114 114 235 235 208 208 208 208 121 121 121
 6 6 6 6 6 6 124 124 124 75 75 218 218 218 218 218 114 114 114 114
 235 235 235 208 208 208 121 121 121 6 6 6 6 6 6 124 124 124 124 218
 218 218 218 218 218 52 114 114 235 235 235 235 235 235 208 121 121 121 6 6
 6 6 6 124 124 124 124 124 218 218 218 218 218 52 52 118 118 235 235 235
 235 235 235 235 121 121 121 6 6 6 6 6 51 51 51 51 51 218 218 218
 52 52 52 52 118 118 235 235 235 235 235 235 235 121 121 239 239 239 239 239
 239 51 51 51 51 51 51 218 52 52 52 52 52 118 118 235 235 235 235 235
 235 235 155 155 239 239 239 239 239 239 51 51 51 51 51 51 218 52 52 52
 52 52 118 118 235 235 235 235 235 235 155 155 155 239 239 239 239 239 239 239
 51 51 51 51 151 151 52 52 52 52 39 39 39 235 235 235 235 155 155 155
 155 155 155 239 239 239 239 239 239 148 148 51 51 151 151 151 52 31 52 39
 39 39 39 183 235 155 155 155 155 155 155 155 93 239 239 239 239 148 148 148
 148 148 151 151 31 31 31 31 39 39 39 183 183 183 155 155 155 155 155 155
 155 93 239 239 239 148 148 148 148 148 148 148 31 31 31 31 31 39 39 39
 183 183 183 183 155 155 155 155 155 155 93 139 139 139 148 148 148 148 148 148
 148 31 31 31 31 31 39 39 39 183 183 183 183 155 155 155 155 155 155 110
 139 139 139 139 139 148 148 148 148 31 31 31 31 31 31 31 39 39 183 183
 42 42 155 155 155 155 110 110 110 139 139 139 139 139 139 139 139 139 31 31
 31 31 31 31 31 39 39 42 42 42 42 42 155 155 110 110 110 110 139 139
 139 139 139 139 139 139 139 85 31 31 31 31 31 31 39 74 42 42 42 42
 42 42 18 110 110 110 110 139 139 139 139 139 139 139 139 189 85 134 134 134
 134 31 74 74 74 74 42 42 42 42 18 18 207 207 110 110 139 139 139 139
 139 139 139 189 189 85 134 134 134 134 134 74 74 74 74 74 74 74 18 18
 18 207 207 207 207 139 139 139 139 139 139 189 189 189 85 85 134 134 134 134
 74 74 74 74 74 74 74 18 18 18 207 207 207 207 207 139 139 139 139 139
 189 189 85 85 85 85 85 85 85 74 74 74 74 74 74 74 18 224 224 207
 207 207 207 220 220 220 220 139 189 189 189 85 85 85 85 85 85 85 74 74
 74 74 74 74 174 174 224 224 207 207 207 220 220 220 220 220 220 189 189 189
 85 85 85 85 85 85 85 74 74 74 74 74 174 174 174 174 224 207 207 207
 220 220 220 220 220 54 54 59 59 59 85 85 85 85 85 85 228 228 74 74
 74 174 174 174 174 174 207 207 207 220 220 220 220 220 54 54 59 59 59 59
 85 85 217 217 217 228 228 94 94 94 174 82 82 82 82 207 207 220 220 220
 220 220 54 54 54 59 59 59 59 232 232 232 232 232 228 228 94 94 94 94
 82 82 82 82 82 215 215 215 215 215 215 54 54 188 59 59 59 59 232 232
 232 232 232 228 228 94 94 94 94 82 82 82 208 208 208 215 215 215 215 215
 188 188 188 188 59 59 232 232 232 232 232 232 228 228 228 94 94 94 208 208
 208 208 208 208 62 62 215 215 215 215 188 188 188 59 75 75 232 232 232 232
 232 87 87 87 87 87 87 208 208 208 208 208 208 62 62 62 62 6 6 158
 158 158 75 75 75 75 75 232 232 232 87 87 87 87 87 87 208 208 208 208
 208 208 62 62 62 6 6 6 158 158 158 75 75 75 75 75 232 232 232 114
 114 87 87 87 87 87 208 208 208 208 121 62 62 6 6 6 6 158 158 158
 75 75 75 75 75 75 75 75 114 114 114 114 114 87 87 208 208 208 121 121
 121 6 6 6 6 6 6 124 124 124 75 75 218 218 218 218 218 114 114 114
 114 114 235 235 235 204 204 121 121 121 6 6 6 6 6 6 124 124 124 124
 218 218 218 218 218 218 52 114 114 114 235 235 235 235 235 204 204 204 204 6
 6 6 6 6 124 124 124 124 124 218 218 218 218 218 52 52 114 114 114 235
 235 235 235 235 204 204 204 204 6 6 6 6 6 124 124 124 124 124 218 218
 218 218 52 52 52 114 114 235 235 235 235 235 235 235 204 204 204 6 6 239
 6 6 124 124 124 124 124 124 218 52 52 52 52 52 118 118 235 235 235 235
 235 235 78 78 78 78 239 239 239 239 239 191 191 124 124 124 51 218 52 52
 52 52 52 118 235 235 235 235 235 235 78 78 78 78 78 239 239 239 239 239
 191 191 191 51 51 151 11 52 52 52 52 39 39 39 235 235 235 235 78 78
 78 78 78 78 239 239 239 239 239 148 148 148 148 148 11 11 11 11 31 31
 39 39 39 39 235 235 78 78 78 78 78 78 78 93 239 239 239 148 148 148
 148 148 148 11 11 11 31 31 31 39 39 39 39 183 183 78 78 78 78 78
 78 78 93 154 239 148 148 148 148 148 148 148 11 11 31 31 31 31 39 39
 39 39 183 183 78 78 78 78 78 78 78 110 110 139 148 148 148 148 148 148
 148 148 31 31 31 31 31 39 39 39 39 183 183 200 155 155 78 155 110 110
 110 110 139 139 156 156 148 148 148 148 148 31 31 31 31 31 39 39 39 39
 183 42 42 155 155 78 110 110 110 110 110 139 139 139 139 139 139 148 148 31
 31 31 31 31 31 39 39 39 39 42 42 42 42 155 110 110 110 110 110 110
 139 139 139 139 139 139 139 139 31 31 31 31 31 31 39 74 74 74 42 42
 42 42 18 18 110 110 110 110 110 139 139 139 139 139 139 189 189 189 134 134
 134 31 31 74 74 74 74 74 74 74 18 18 18 18 110 110 110 110 139 139
 139 139 139 139 189 189 189 134 134 134 134 197 74 74 74 74 74 74 74 18
 18 18 18 207 207 110 110 139 139 139 139 139 189 189 189 189 85 85 134 134
 197 74 74 74 74 74 74 74 18 18 18 207 207 207 207 110 139 139 139 139
 189 189 189 189 189 85 85 85 85 197 74 74 74 74 74 74 74 18 18 224
 207 207 207 207 220 220 220 220 189 189 189 189 189 189 85 85 85 85 85 74
 74 74 74 74 74 174 174 224 224 207 207 207 220 220 220 220 220 220 189 189
 189 189 189 85 85 85 85 85 162 74 74 74 74 174 174 174 174 224 207 207
 207 220 220 220 220 220 54 54 59 59 59 59 85 85 217 217 217 162 162 74
 74 74 174 174 174 174 174 207 207 207 220 220 220 220 220 54 54 59 59 59
 59 217 217 217 217 217 228 162 94 94 74 174 174 174 174 174 207 207 220 220
 220 220 220 54 54 54 59 59 59 59 217 217 217 217 217 228 228 94 94 94
 174 174 82 82 82 208 208 202 202 202 202 202 54 188 188 59 59 59 59 232
 232 232 232 232 228 228 94 94 94 94 174 82 208 208 208 208 202 202 202 202
 202 188 188 188 188 59 59 232 232 232 232 232 232 228 228 228 94 87 87 208
 208 208 208 208 208 62 62 62 202 202 188 188 188 188 59 75 75 232 232 232
 232 232 87 87 87 87 87 87 87 208 208 208 208 208 62 62 62 202 202 158
 158 158 158 158 75 75 75 75 232 232 232 87 87 87 87 87 87 87 208 208
 208 208 204 62 62 62 186 186 158 158 158 158 75 75 75 75 75 75 75 75
 87 87 87 87 87 87 87 208 208 208 204 204 204 62 6 6 6 6 158 158
 158 124 75 75 75 75 75 75 75 114 114 114 114 87 87 87 208 208 204 204
 204 204 204 6 6 6 6 158 124 124 124 124 124 218 218 218 218 218 114 114
 114 114 114 114 235 208 204 204 204 204 204 204 6 6 6 6 124 124 124 124
 124 124 218 218 218 218 218 114 114 114 114 114 235 235 235 204 204 204 204 204
 204 6 6 6 6 124 124 124 124 124 124 218 218 218 218 52 52 114 114 114
 114 235 235 235 235 204 204 204 204 204 6 6 6 6 124 124 124 124 124 124
 218 218 218 52 52 52 114 114 114 235 235 235 235 235 235 204 204 204 204 6
 6 6 124 124 124 124 124 124 124 218 52 52 52 52 52 114 114 235 235 235
 235 235 78 78 78 78 78 154 154 239 154 191 191 191 191 124 124 124 218 52
 52 52 52 52 114 235 235 235 235 235 235 78 78 78 78 78 154 154 239 154
 191 191 191 191 191 124 11 11 11 52 52 52 39 39 39 235 235 235 235 78
 78 78 78 78 78 154 154 154 154 191 191 191 191 148 148 11 11 11 11 11
 52 39 39 39 39 235 235 78 78 78 78 78 78 78 154 154 154 154 148 148
 148 148 148 148 11 11 11 11 31 31 39 39 39 39 200 200 78 78 78 78
 78 78 78 154 154 154 148 148 148 148 148 148 148 11 11 11 31 31 31 39
 39 39 39 39 200 78 78 78 78 78 78 78 110 110 156 156 156 148 148 148
 148 148 11 11 31 31 31 31 39 39 39 39 39 200 200 78 78 78 78 110
 110 110 110 156 156 156 156 148 148 148 148 11 11 31 31 31 31 31 39 39
 39 149 149 149 149 78 78 110 110 110 110 110 156 156 156 156 156 148 148 66
 66 31 31 31 31 31 31 39 39 149 149 149 149 149 149 110 110 110 110 110
 110 139 139 139 139 139 139 139 66 66 31 31 31 31 31 31 39 149 149 149
 149 149 149 149 110 110 110 110 110 110 139 139 139 139 139 139 189 189 189 189
 197 197 197 197 74 74 74 74 74 74 74 74 18 18 110 110 110 110 110 139
 139 139 139 139 189 189 189 189 189 189 197 197 197 74 74 74 74 74 74 74
 74 18 18 224 207 110 110 110 139 139 139 139 189 189 189 189 189 189 189 197
 197 197 74 74 74 74 74 74 74 18 18 18 224 207 207 207 110 139 139 139
 139 189 189 189 189 189 189 85 197 197 197 213 213 213 213 74 74 74 74 224
 224 207 207 207 207 220 220 220 220 189 189 189 189 189 189 189 242 242 197 197
 213 213 213 213 74 74 74 174 224 224 207 207 207 220 220 220 220 220 189 189
 189 189 189 189 189 242 242 242 242 162 213 213 213 74 74 174 174 174 224 207
 207 207 220 220 220 220 220 54 54 59 59 189 189 242 242 242 242 242 162 162
 213 213 74 174 174 174 174 174 207 207 207 220 220 220 220 220 54 54 59 59
 59 59 217 217 217 217 217 162 162 162 5 5 174 174 174 174 174 207 207 220
 220 220 220 202 54 54 54 59 59 59 59 217 217 217 217 217 162 162 5 5
 5 5 174 174 174 208 208 202 202 202 202 202 202 202 188 188 59 59 59 59
 217 217 217 217 217 162 5 5 5 5 5 5 208 208 208 208 208 202 202 202
 202 202 202 188 188 188 59 59 232 232 232 232 232 232 162 5 5 5 87 87
 87 208 208 208 208 208 62 62 202 202 202 202 188 188 188 59 75 75 232 232
 232 232 232 87 87 87 87 87 87 87 87 208 208 208 204 62 128 202 186 186
 158 158 158 158 158 75 75 75 75 232 40 40 87 87 87 87 87 87 87 87
 208 208 204 204 204 128 186 186 186 158 158 158 158 158 75 75 75 75 75 40
 40 87 87 87 87 87 87 87 87 208 204 204 204 204 204 186 186 6 158 158
 158 158 124 124 75 75 75 75 40 40 114 114 114 114 87 87 87 87 204 204
 204 204 204 204 6 6 6 6 158 158 124 124 124 124 124 218 218 218 218 114
 114 114 114 114 114 87 87 233 233 204 204 204 204 6 6 6 6 124 124 124
 124 124 124 218 218 218 218 218 114 114 114 114 114 114 235 235 233 233 204 204
 204 204 6 6 6 6 124 124 124 124 124 124 218 218 218 218 52 52 114 114
 114 114 114 235 235 235 233 204 204 204 204 6 6 6 124 124 124 124 124 124
 124 218 218 218 52 52 52 114 114 114 114 235 235 235 235 78 204 204 204 204
 6 6 6 124 124 124 124 124 124 124 124 218 52 52 52 52 114 114 171 235
 235 235 235 78 78 78 78 78 154 154 154 154 191 191 191 191 124 124 124 124
 52 52 52 52 52 114 114 171 235 235 235 78 78 78 78 78 78 154 154 154
 154 191 191 191 191 191 124 11 11 11 11 52 52 39 39 39 171 235 235 78
 78 78 78 78 78 78 154 154 154 154 154 191 191 191 191 11 11 11 11 11
 11 11 39 39 39 200 200 200 78 78 78 78 78 78 78 154 154 154 154 154
 148 148 148 148 148 11 11 11 11 11 31 39 39 39 200 200 200 200 78 78
 78 78 78 78 154 154 154 154 154 148 148 148 148 148 11 11 11 11 31 31
 39 39 39 200 200 200 200 78 78 78 78 78 78 154 154 154 156 156 148 148
 148 148 148 11 11 11 31 31 31 31 39 39 200 200 200 200 78 78 78 78
 78 110 110 110 156 156 156 156 148 148 148 66 66 11 31 31 31 31 31 39
 39 149 149 149 149 149 78 78 110 110 110 110 110 156 156 156 156 156 66 66
 66 66 31 31 31 31 31 31 39 149 149 149 149 149 149 149 110 110 110 110
 110 110 110 156 156 156 156 66 66 66 66 66 31 31 31 31 197 149 149 149
 149 149 149 149 149 110 110 110 110 110 110 110 139 139 139 139 189 189 189 189
 189 197 197 197 197 197 74 74 74 149 149 149 149 149 196 196 110 110 110 110
 110 139 139 139 139 189 189 189 189 189 197 197 197 197 197 74 74 74 74 74
 74 74 18 224 196 196 196 110 110 139 139 139 139 189 189 189 189 189 189 197
 197 197 197 197 213 213 213 74 74 74 74 18 224 224 196 196 207 110 139 139
 139 189 189 189 189 189 189 189 197 197 197 197 213 213 213 213 74 74 74 74
 224 224 207 207 207 207 220 220 220 139 189 189 189 189 189 189 189 242 242 197
 197 213 213 213 213 213 74 74 74 224 224 207 207 207 220 220 220 220 220 189
 189 189 189 189 189 242 242 242 242 242 162 162 213 213 213 74 74 174 174 224
 207 207 207 220 220 220 220 220 189 189 189 189 189 189 242 242 242 242 162 162
 162 162 162 213 74 174 174 174 174 207 207 207 220 220 220 220 220 54 54 59
 59 59 217 217 217 217 217 162 162 162 162 5 5 5 174 174 174 174 207 207
 202 202 202 202 202 202 54 54 59 59 59 217 217 217 217 217 162 162 162 5
 5 5 5 5 174 206 208 208 202 202 202 202 202 202 202 188 188 59 59 59
 217 217 217 217 217 162 162 5 5 5 5 5 5 5 208 208 208 208 202 202
 202 202 202 202 188 188 188 59 59 232 232 232 217 217 162 162 5 5 5 5
 87 87 208 208 208 208 208 62 202 202 202 202 202 158 158 158 158 75 75 232
 232 232 232 162 5 5 5 87 87 87 87 87 208 204 204 204 128 128 128 186
 186 158 158 158 158 158 75 75 75 125 40 40 40 5 5 87 87 87 87 87
 87 208 204 204 204 128 128 128 186 186 158 158 158 158 158 75 75 75 125 40
 40 40 87 87 87 87 87 87 87 87 233 233 233 204 204 128 128 186 186 158
 158 158 158 124 124 124 75 125 40 40 40 114 114 114 87 87 87 87 87 233
 233 233 204 204 204 204 6 6 6 158 158 124 124 124 124 124 125 218 40 13
 114 114 114 114 114 87 87 87 233 233 233 233 204 204 204 6 6 6 124 124
 124 124 124 124 124 218 218 218 13 114 114 114 114 114 114 114 87 233 233 233
 233 204 204 204 6 6 124 124 124 124 124 124 124 124 218 218 218 13 52 114
 114 114 114 114 114 235 233 233 233 204 204 204 204 6 6 124 124 124 124 124
 124 124 124 218 218 52 52 52 171 171 171 171 114 114 235 235 233 233 204 204
 14 14 14 14 89 89 124 124 124 124 124 124 218 52 52 52 171 171 171 171
 171 171 235 235 78 78 78 78 78 14 14 14 14 89 191 191 191 124 124 124
 11 52 52 52 52 171 171 171 171 171 171 235 78 78 78 78 78 78 154 154
 154 154 89 191 191 191 89 89 11 11 11 11 11 52 41 41 171 171 171 200
 78 78 78 78 78 78 78 154 154 154 154 154 191 191 191 89 89 11 11 11
 11 11 11 41 41 41 200 200 200 200 78 78 78 78 78 78 154 154 154 154
 154 89 148 148 148 148 11 11 11 11 11 2 2 41 200 200 200 200 200 78
 78 78 78 78 78 154 154 154 154 154 148 148 148 148 148 11 11 11 11 2
 2 2 39 39 200 200 200 200 200 78 78 78 78 78 154 154 154 154 156 148
 148 148 148 66 11 11 11 2 2 2 2 39 200 200 200 200 200 200 78 78
 78 78 110 110 110 156 156 156 156 148 66 66 66 66 11 2 2 2 2 2
 39 149 149 149 149 149 149 149 78 110 110 110 110 110 156 156 156 156 156 66
 66 66 66 66 2 2 2 2 243 149 149 149 149 149 149 149 149 110 110 110
 110 110 110 156 156 156 156 156 66 66 66 66 66 197 2 2 2 197 149 149
 149 149 149 149 149 149 196 196 196 110 110 110 110 139 139 139 139 66 66 66
 66 197 197 197 197 197 197 197 74 149 149 149 149 149 149 196 196 196 196 110
 110 110 139 139 139 189 189 189 189 189 189 197 197 197 197 197 74 74 74 74
 149 149 149 149 196 196 196 196 196 110 110 139 139 139 189 189 189 189 189 189
 197 197 197 197 197 213 213 213 74 74 74 74 18 196 196 196 196 196 110 91
 91 139 189 189 189 189 189 189 189 197 197 197 197 197 213 213 213 213 74 74
 74 224 196 196 196 196 196 220 220 220 189 189 189 189 189 189 189 242 242 242
 197 197 197 213 213 213 213 74 74 74 224 224 207 207 207 220 220 220 220 220
 189 189 189 189 189 189 242 242 242 242 197 162 162 162 213 213 74 74 174 174
 224 207 207 90 220 220 220 220 220 189 189 189 189 189 242 242 242 242 242 162
 162 162 162 162 213 5 5 174 206 206 90 90 90 220 220 220 220 220 241 241
 241 241 241 242 242 242 242 242 162 162 162 162 5 5 5 5 206 206 206 90
 90 202 202 202 202 202 202 54 241 241 241 241 217 217 217 217 217 162 162 162
 5 5 5 5 5 206 206 206 208 202 202 202 202 202 202 202 202 241 241 241
 241 217 217 217 217 217 162 162 5 5 5 5 5 5 206 206 208 208 202 202
 202 202 202 202 202 188 241 241 241 241 217 217 217 217 217 162 162 5 5 5
 5 5 5 5 208 208 208 128 128 128 202 202 202 202 158 158 158 158 75 75
 232 232 232 232 162 5 5 5 5 87 87 87 87 26 26 26 128 128 128 128
 128 186 173 173 158 158 158 158 125 125 125 40 40 40 40 5 87 87 87 87
 87 87 26 26 26 128 128 128 128 128 186 158 158 158 158 158 158 125 125 125
 40 40 40 13 87 87 87 87 87 87 87 26 233 233 233 128 128 128 128 186
 158 158 158 158 124 124 125 125 125 40 40 40 13 13 114 87 87 87 87 87
 233 233 233 233 204 128 128 128 6 6 158 124 124 124 124 124 125 125 125 40
 13 13 13 114 114 114 87 87 87 233 233 233 233 204 204 204 6 6 124 124
 124 124 124 124 124 124 125 125 13 13 13 13 114 114 114 114 114 87 233 233
 233 233 204 204 204 6 14 124 124 124 124 124 124 124 124 218 218 13 13 13
 13 171 171 171 114 114 235 233 233 233 233 204 14 14 14 14 89 89 124 124
 124 124 124 124 218 218 13 13 13 171 171 171 171 171 171 235 233 233 233 233
 14 14 14 14 14 89 89 89 89 124 124 124 124 218 52 52 52 171 171 171
 171 171 171 171 78 78 78 78 78 14 14 14 14 14 89 89 89 89 89 89
 124 124 52 165 165 165 41 41 171 171 171 171 171 78 78 78 78 78 14 14
 14 154 154 89 89 89 89 89 89 89 11 11 165 165 165 41 41 41 41 171
 200 78 78 78 78 78 78 154 154 154 154 154 154 89 89 89 89 89 11 11
 11 165 165 165 41 41 41 41 200 200 200 78 78 78 78 78 154 154 154 154
 154 154 89 89 89 89 89 11 11 11 165 165 165 41 41 41 200 200 200 200
 200 78 78 78 78 154 154 154 154 154 154 89 89 148 148 148 11 11 11 2
 2 2 2 41 41 200 200 200 200 200 55 55 55 78 154 154 154 154 154 154
 148 148 66 66 66 66 11 2 2 2 2 2 41 41 200 200 200 200 200 55
 55 55 55 154 154 154 154 156 156 156 66 66 66 66 66 66 2 2 2 2
 243 243 149 149 149 149 149 149 55 55 55 110 110 110 201 156 156 156 156 66
 66 66 66 66 66 2 2 2 2 243 243 149 149 149 149 149 149 149 196 196
 110 110 110 201 201 156 156 156 66 66 66 66 66 66 243 243 243 243 243 243
 149 149 149 149 149 149 149 196 196 196 196 110 201 201 201 201 139 66 66 66
 66 66 197 197 197 197 243 197 197 149 149 149 149 149 149 149 196 196 196 196
 196 201 201 201 201 139 189 189 189 189 189 189 197 197 197 197 197 197 74 149
 149 149 149 149 149 196 196 185 196 196 91 91 91 91 189 189 189 189 189 189
 189 197 197 197 197 197 213 213 213 74 149 149 149 149 196 196 196 196 196 91
 91 91 91 189 189 189 189 189 189 189 197 197 197 197 197 213 213 213 213 74
 74 74 196 196 196 196 196 196 91 91 91 111 111 189 189 189 189 189 242 242
 242 197 197 162 162 213 213 213 74 74 74 196 196 90 90 90 196 91 91 111
 111 111 111 189 189 189 242 242 242 242 242 197 162 162 162 162 213 74 74 206
 206 90 90 90 90 90 96 220 111 111 111 111 111 241 241 242 242 242 242 242
 162 162 162 162 162 162 5 5 206 206 206 90 90 90 96 96 202 202 111 111
 111 241 241 241 242 242 242 242 242 162 162 162 162 5 5 5 5 206 206 206
 90 90 96 96 202 202 202 202 111 241 241 241 241 241 242 242 242 242 162 162
 162 5 5 5 5 5 206 206 206 206 96 96 202 202 202 202 202 241 241 241
 241 241 241 217 217 242 242 162 162 5 5 5 5 5 5 206 206 206 206 202
 202 202 202 202 202 202 202 241 241 241 241 241 217 217 217 162 162 162 5 5
 5 5 5 5 143 143 26 26 128 128 128 128 202 202 202 158 158 158 241 241
 241 125 125 40 40 162 40 5 5 5 5 87 143 143 26 26 26 26 128 128
 128 128 128 173 173 173 173 173 173 125 125 125 40 40 40 40 5 87 87 87
 87 87 143 26 26 26 26 128 128 128 128 128 173 173 173 173 173 173 125 125
 125 40 40 40 40 13 87 87 87 87 87 143 26 26 26 233 128 128 128 128
 128 173 173 173 173 173 173 125 125 125 40 40 40 13 13 13 87 87 87 87
 87 26 233 233 233 233 128 128 128 128 173 173 173 173 124 124 125 125 125 125
 40 13 13 13 13 13 87 87 87 87 233 233 233 233 233 204 128 128 14 173
 173 124 124 124 124 124 125 125 125 40 13 13 13 13 13 114 114 87 160 233
 233 233 233 233 204 14 14 14 89 124 124 124 124 124 124 124 218 13 13 13
 13 13 13 171 171 171 171 160 145 233 233 233 14 14 14 14 14 89 89 89
 89 124 124 124 124 218 13 13 13 13 13 171 171 171 171 171 145 145 145 145
 145 14 14 14 14 14 89 89 89 89 89 89 124 124 165 165 13 13 13 171
 171 171 171 171 171 3 3 3 3 14 14 14 14 14 14 89 89 89 89 89
 89 89 89 165 165 165 165 41 41 41 171 171 171 25 3 3 3 3 3 14
 14 14 14 14 89 89 89 89 89 89 89 11 165 165 165 165 41 41 41 41
 171 200 3 3 3 3 3 3 14 154 154 154 154 89 89 89 89 89 89 89
 11 165 165 165 165 41 41 41 41 200 200 200 3 3 3 3 3 154 154 154
 154 154 154 89 89 89 89 89 89 11 165 165 165 165 41 41 41 41 200 200
 200 3 3 3 3 3 154 154 154 154 154 154 89 89 89 89 89 89 11 165
 165 165 165 41 41 41 200 200 200 200 200 55 55 55 55 55 154 154 154 154
 154 89 66 66 66 66 66 2 2 2 2 2 2 41 41 200 200 200 200 200
 55 55 55 55 55 154 154 154 156 156 156 66 66 66 66 66 66 2 2 2
 2 243 41 149 149 149 149 149 149 55 55 55 55 55 201 201 201 201 201 156
 66 66 66 66 66 66 243 243 243 243 243 243 149 149 149 149 149 149 149 55
 55 196 110 201 201 201 201 201 156 66 66 66 66 66 66 243 243 243 243 243
 243 149 149 149 149 149 149 149 196 196 196 196 201 201 201 201 201 201 66 66
 66 66 66 243 243 243 243 243 243 243 149 149 149 149 149 149 149 196 196 196
 196 201 201 201 201 201 201 189 189 189 189 189 197 197 197 197 243 197 197 149
 149 149 149 149 149 149 196 196 196 196 196 91 91 91 91 91 189 189 189 189
 189 189 197 197 197 197 197 197 213 149 149 149 149 149 196 196 196 196 196 196
 91 91 91 91 111 111 189 189 189 189 242 197 197 197 197 197 213 213 116 116
 116 116 116 196 196 196 196 196 196 91 91 91 111 111 111 111 189 189 242 242
 242 242 197 197 197 162 213 213 116 116 116 116 116 90 90 90 90 90 91 91
 111 111 111 111 111 111 189 242 242 242 242 242 197 162 162 162 162 162 116 116
 206 206 90 90 90 90 96 96 96 111 111 111 111 111 111 241 242 242 242 242
 242 162 162 162 162 162 162 5 206 206 206 206 90 90 90 96 96 96 111 111
 111 111 111 241 241 242 242 242 242 242 162 162 162 162 5 5 5 206 206 206
 206 90 90 96 96 96 96 96 111 111 111 241 241 241 241 242 242 242 242 162
 162 162 162 5 5 5 206 206 206 206 206 96 96 96 96 96 96 111 111 241
 241 241 241 241 242 242 242 242 162 162 5 5 5 5 5 206 206 206 206 206
 96 96 96 96 96 202 202 173 241 241 241 241 241 242 242 242 162 162 162 5
 5 5 5 5 206 143 143 26 26 26 128 128 128 128 202 173 173 173 173 241
 241 241 125 125 40 40 40 40 5 5 5 5 87 143 143 143 26 26 26 128
 128 128 128 128 173 173 173 173 173 173 125 125 125 125 40 40 40 40 5 87
 87 87 143 143 143 26 26 26 128 128 128 128 128 173 173 173 173 173 173 125
 125 125 40 40 40 40 40 13 87 87 87 143 143 26 26 26 26 128 128 128
 128 173 173 173 173 173 173 173 125 125 125 40 40 40 13 13 13 13 87 87
 143 143 26 26 26 233 233 128 128 128 173 173 173 173 173 173 173 125 125 125
 40 40 40 13 13 13 13 13 160 160 160 160 233 233 233 233 204 128 14 14
 173 173 173 124 124 124 124 125 125 40 13 13 13 13 13 13 13 160 160 160
 160 233 233 233 233 14 14 14 14 89 89 124 124 124 124 124 124 125 13 13
 13 13 13 13 13 171 171 160 160 145 145 145 145 14 14 14 14 14 89 89
 89 89 89 89 124 124 125 13 13 13 13 13 13 171 171 171 160 145 145 145
 145 145 14 14 14 14 14 89 89 89 89 89 89 89 89 165 13 13 13 41
 41 171 171 171 171 25 145 145 145 145 145 14 14 14 14 14 89 89 89 89
 89 89 89 165 165 165 165 165 41 41 41 41 171 25 25 25 3 3 3 3
 14 14 14 14 14 89 89 89 89 89 89 89 165 165 165 165 165 41 41 41
 41 41 25 25 25 3 3 3 3 14 14 14 14 154 89 89 89 89 89 89
 89 165 165 165 165 165 41 41 41 41 200 25 25 25 3 3 3 3 3 154
 154 154 154 89 89 89 89 89 89 89 165 165 165 165 165 41 41 41 41 200
 200 25 25 3 3 3 3 3 154 154 154 154 89 89 89 89 89 89 89 165
 165 165 165 165 41 41 41 41 200 200 200 55 55 55 55 55 100 100 100 100
 100 100 100 89 66 66 66 66 165 165 165 165 165 41 41 41 200 200 200 200
 55 55 55 55 55 55 100 100 100 100 100 100 66 66 66 66 66 66 2 2
 2 2 243 41 149 149 149 149 149 149 55 55 55 55 201 201 201 201 201 201
 201 66 66 66 66 66 243 243 243 243 243 243 243 149 149 149 149 149 149 55
 55 55 196 201 201 201 201 201 201 201 66 66 66 66 66 243 243 243 243 243
 243 243 149 149 149 149 149 149 149 196 196 196 196 201 201 201 201 201 201 66
 66 66 66 132 131 243 243 16 243 243 243 149 149 149 149 149 149 149 196 196
 196 196 201 201 201 201 201 201 201 189 132 132 132 131 243 243 243 243 243 243
 149 149 149 149 149 149 149 196 196 196 196 91 91 91 91 91 91 111 189 132
 132 132 131 131 243 243 197 197 197 116 116 116 116 116 116 116 196 196 196 196
 91 91 91 91 91 111 111 111 111 132 132 131 131 197 197 197 197 213 116 116
 116 116 116 116 116 90 90 90 90 91 91 91 91 111 111 111 111 111 111 19
 242 242 242 197 197 162 162 116 116 116 116 116 116 116 90 90 90 90 90 91
 91 111 111 111 111 111 111 19 19 242 242 242 242 197 162 162 162 162 116 116
 116 206 206 90 90 90 90 96 96 96 111 111 111 111 111 111 19 19 19 242
 242 242 162 162 162 162 162 116 206 206 206 206 206 90 90 90 96 96 96 96
 111 111 111 111 111 19 19 19 242 242 242 162 162 162 162 162 5 206 206 206
 206 206 90 90 96 96 96 96 96 111 111 111 241 241 241 19 19 242 242 242
 162 162 162 162 5 5 206 206 206 206 206 206 96 96 96 96 96 96 96 111
 241 241 241 241 241 19 242 242 162 162 162 162 5 5 5 5 206 206 206 206
 206 96 96 96 96 96 96 96 173 173 241 241 241 241 125 125 125 40 162 162
 5 5 5 5 5 206 206 143 26 26 96 96 96 96 96 96 173 173 173 173
 173 241 125 125 125 125 40 40 40 40 5 5 5 143 143 143 143 26 26 26
 128 128 128 128 173 173 173 173 173 173 173 125 125 125 125 40 40 40 40 5
 87 87 143 143 143 143 26 26 26 128 128 128 128 173 173 173 173 173 173 173
 125 125 125 125 40 40 40 40 13 87 87 87 143 143 143 26 26 26 128 128
 128 128 173 173 173 173 173 173 173 125 125 125 40 40 40 13 13 13 13 87
 160 160 143 143 26 26 26 233 128 128 102 102 173 173 173 173 173 173 125 125
 125 40 40 40 13 13 13 13 13 160 160 160 160 160 233 233 216 216 216 216
 216 115 115 115 115 115 105 105 125 125 40 40 13 13 13 13 13 13 160 160
 160 160 160 145 145 216 216 216 216 216 115 115 115 115 115 115 105 105 105 13
 13 13 13 13 13 13 171 160 160 160 145 145 145 145 216 216 14 14 14 115
 115 115 115 115 115 115 105 105 13 13 13 13 13 13 13 171 160 160 145 145
 145 145 145 216 14 14 14 14 89 115 115 115 115 115 115 119 119 165 13 13
 41 41 41 171 171 25 160 145 145 145 145 145 216 14 14 14 14 89 89 89
 89 89 89 89 119 119 165 165 165 41 41 41 41 41 25 25 25 25 145 145
 145 14 14 14 14 14 89 89 89 89 89 89 89 177 165 165 165 165 41 41
 41 41 41 25 25 25 25 3 3 3 14 14 14 190 190 89 89 89 89 89
 89 177 177 165 165 165 165 41 41 41 41 25 25 25 25 25 3 3 3 100
 100 100 100 100 89 89 89 89 89 89 177 177 165 165 165 165 41 41 41 41
 200 25 25 25 25 3 3 3 100 100 100 100 100 100 89 89 89 89 89 177
 177 165 165 165 165 41 41 41 41 200 25 25 25 55 55 55 55 100 100 100
 100 100 100 100 89 89 89 157 157 157 165 165 165 165 41 41 41 41 200 200
 200 55 55 55 55 55 100 100 100 100 100 100 100 66 66 66 157 157 157 157
 2 2 2 243 41 168 168 149 149 149 55 55 55 55 55 100 100 100 201 201
 100 100 66 66 157 157 157 157 243 243 243 243 243 243 168 168 149 149 149 149
 55 55 55 55 201 201 201 201 201 201 201 66 66 66 157 157 157 243 243 243
 243 243 168 168 168 149 149 149 149 149 71 196 196 201 201 201 201 201 201 201
 28 66 132 132 132 131 243 243 243 243 243 243 168 149 149 149 149 149 71 196
 196 196 196 201 201 201 201 201 201 28 132 132 132 132 131 131 243 243 243 243
 243 116 116 116 116 116 116 116 196 196 196 196 91 91 91 91 91 28 28 28
 132 132 132 131 131 131 243 243 197 116 116 116 116 116 116 116 116 196 196 196
 196 91 91 91 91 91 111 111 111 132 132 132 131 131 131 131 197 197 142 142
 116 116 116 116 116 116 90 90 90 90 91 91 91 91 111 111 111 111 111 19
 19 19 131 131 131 197 162 142 142 116 116 116 116 116 116 90 90 90 90 90
 91 91 111 111 111 111 111 111 19 19 19 19 242 242 197 162 142 142 142 116
 116 116 206 206 90 90 90 90 96 96 96 111 111 111 111 111 111 19 19 19
 19 242 242 162 162 162 142 142 116 116 206 206 206 206 90 90 96 96 96 96
 96 111 111 111 111 19 19 19 19 19 242 242 162 162 162 162 142 5 206 206
 206 206 206 90 96 96 96 96 96 96 129 129 129 129 19 19 19 19 19 242
 242 162 162 162 162 5 5 206 206 206 206 206 206 96 96 96 96 96 96 129
 129 129 129 129 19 19 19 19 242 162 162 162 162 5 5 5 206 206 206 206
 206 206 96 96 96 96 96 96 129 129 129 129 129 19 19 125 125 125 40 40
 162 5 5 5 5 206 206 206 206 26 26 96 96 96 96 96 96 173 173 173
 173 173 173 125 125 125 125 40 40 40 123 123 123 5 143 143 143 143 143 26
 26 128 128 128 102 102 102 102 173 212 212 212 88 88 125 125 159 40 40 123
 123 123 123 143 143 143 143 143 26 26 128 128 128 102 102 102 102 102 212 212
 212 88 88 125 159 159 159 40 13 123 123 87 143 143 143 143 143 26 26 128
 128 128 102 102 102 102 102 212 212 212 88 88 125 159 159 159 13 13 13 13
 160 160 160 160 143 143 26 26 216 216 216 102 102 102 102 102 102 212 212 88
 88 125 159 159 159 13 13 13 13 160 160 160 160 160 160 160 216 216 216 216
 216 102 102 102 115 115 115 105 105 105 105 159 13 13 13 13 13 13 13 160
 160 160 160 145 145 145 216 216 216 216 234 115 115 115 115 115 105 105 105 105
 105 13 13 13 13 13 13 160 160 160 160 145 145 145 145 216 216 216 216 234
 115 115 115 115 115 115 105 105 105 119 13 13 13 13 13 13 160 160 160 145
 145 145 145 145 216 216 216 216 234 115 115 115 115 115 115 105 119 119 119 119
 13 13 41 13 13 25 25 160 145 145 145 145 145 216 216 14 190 190 115 115
 115 115 115 115 119 119 119 119 119 165 133 133 133 133 25 25 25 25 25 145
 145 145 216 216 190 190 190 89 89 89 89 89 89 119 119 119 119 165 165 133
 133 133 133 25 25 25 25 25 25 3 3 100 100 190 190 190 89 89 89 89
 89 89 177 177 177 177 165 165 133 133 133 133 25 25 25 25 25 25 3 3
 100 100 100 100 100 100 89 89 89 89 89 177 177 177 177 165 165 133 133 133
 133 25 25 25 25 25 25 3 3 100 100 100 100 100 100 100 89 89 89 177