# vtk DataFile Version 2.0
Data set from ImportExport Version 6.5.171.b0b162591
ASCII

DATASET RECTILINEAR_GRID
DIMENSIONS 30 30 30
X_COORDINATES 30 float
-1.250000 1.250000 3.750000 6.250000 8.750000 11.250000 13.750000 16.250000 18.750000 21.250000 23.750000 26.250000 28.750000 31.250000 33.750000 36.250000 38.750000 41.250000 43.750000 46.250000 48.750000 
51.250000 53.750000 56.250000 58.750000 61.250000 63.750000 66.250000 68.750000 71.250000 
Y_COORDINATES 30 float
-1.250000 1.250000 3.750000 6.250000 8.750000 11.250000 13.750000 16.250000 18.750000 21.250000 23.750000 26.250000 28.750000 31.250000 33.750000 36.250000 38.750000 41.250000 43.750000 46.250000 48.750000 
51.250000 53.750000 56.250000 58.750000 61.250000 63.750000 66.250000 68.750000 71.250000 
Z_COORDINATES 30 float
-1.250000 1.250000 3.750000 6.250000 8.750000 11.250000 13.750000 16.250000 18.750000 21.250000 23.750000 26.250000 28.750000 31.250000 33.750000 36.250000 38.750000 41.250000 43.750000 46.250000 48.750000 
51.250000 53.750000 56.250000 58.750000 61.250000 63.750000 66.250000 68.750000 71.250000 
CELL_DATA 24389
SCALARS FeatureIds int 1
LOOKUP_TABLE default
 85 85 85 85 85 98 98 98 98 204 204 204 204 204 204 152 152 152 152 152
 152 152 152 55 180 180 180 180 180 180 180 85 85 85 98 98 98 98 204 204
 204 204 204 204 152 152 152 152 152 152 152 152 180 180 180 180 180 180 180 180
 180 180 246 246 246 246 246 246 204 204 204 149 149 152 152 152 152 152 152 152
 152 180 180 180 180 180 180 180 180 180 180 246 246 246 246 246 246 149 149 149
 149 149 137 137 152 152 152 152 152 152 180 180 180 180 180 180 180 180 180 246
 246 246 246 246 246 246 246 149 149 149 149 137 137 137 137 152 152 152 152 180
 180 180 180 180 180 180 180 180 246 246 246 246 246 246 246 246 246 149 149 137
 137 137 137 137 152 152 152 152 180 180 180 180 180 180 180 180 180 246 246 246
 246 246 246 246 246 242 242 242 137 137 137 137 137 137 152 152 229 229 229 229
 229 180 180 180 185 30 30 246 246 246 246 246 148 148 242 242 242 49 49 154
 154 154 154 154 119 119 119 119 119 119 119 180 185 185 30 30 30 246 246 148
 148 148 148 242 242 242 49 49 51 51 51 51 41 41 119 119 119 119 119 119
 119 185 185 30 30 118 118 118 148 148 148 148 242 242 242 49 49 51 51 51
 51 41 41 41 119 119 119 119 119 119 185 185 185 118 118 118 118 148 148 148
 148 242 242 242 49 49 51 51 51 41 41 41 41 119 119 119 119 119 119 185
 185 185 118 118 118 118 118 69 69 69 69 242 49 49 49 49 51 51 41 41
 41 41 41 119 119 119 119 119 185 185 185 88 118 118 118 69 69 69 69 69
 11 49 49 49 49 51 41 41 41 41 41 216 216 119 119 119 119 88 88 88
 88 88 88 118 69 69 69 69 69 11 11 49 203 203 203 41 41 41 41 216
 216 216 216 216 119 119 88 88 88 88 88 88 88 69 69 69 69 69 69 69
 166 166 166 166 176 41 66 66 216 216 216 14 14 38 38 88 88 88 88 88
 88 88 69 69 69 69 69 69 166 166 166 166 166 176 176 66 66 66 66 38
 38 38 38 38 88 88 88 88 88 88 88 69 69 69 69 69 69 166 166 166
 166 166 176 176 66 66 66 66 38 38 38 38 38 88 88 88 88 88 88 88
 15 15 15 15 15 166 166 166 166 166 166 176 176 66 66 66 66 38 38 38
 38 38 186 88 88 88 88 88 88 15 15 15 15 15 151 151 166 166 166 176
 176 176 66 66 66 66 38 38 38 38 38 186 186 186 186 88 88 15 15 15
 15 117 117 151 151 151 166 166 176 176 176 66 66 66 38 38 38 38 38 38
 186 186 186 186 186 186 117 117 117 100 100 100 26 26 26 26 146 146 146 176
 66 66 196 196 196 38 38 38 186 186 186 186 186 186 186 100 100 100 100 100
 100 26 26 26 26 146 146 146 146 196 196 196 196 196 196 240 240 186 186 186
 186 186 186 186 100 100 100 100 100 100 26 26 26 26 146 146 146 146 196 196
 196 196 196 196 240 240 240 186 186 186 13 13 13 241 100 100 100 100 100 26
 26 26 26 146 146 146 138 138 196 196 196 196 160 240 240 240 186 186 13 13
 13 13 241 241 239 239 239 239 26 26 26 238 238 138 138 138 138 138 170 170
 160 160 240 240 240 85 85 13 13 13 13 241 241 239 239 239 239 239 238 238
 238 238 138 138 138 138 138 170 170 160 160 240 240 240 85 85 85 13 13 13
 241 241 239 239 239 239 239 238 238 238 238 138 138 138 138 170 170 170 170 160
 240 85 85 85 85 85 85 13 13 241 241 239 239 239 239 239 238 238 238 238
 222 222 138 222 170 170 170 170 160 85 85 85 85 85 85 85 13 13 241 241
 239 239 239 239 239 238 238 238 238 222 222 222 222 222 170 170 170 55 85 85
 85 85 85 85 85 85 98 98 98 98 98 204 149 149 149 149 6 6 152 222
 222 222 222 55 55 55 180 180 180 180 180 180 85 85 98 98 98 98 98 98
 149 149 149 149 149 149 152 152 152 152 152 152 114 180 180 180 180 180 180 180
 180 180 175 246 246 98 98 98 149 149 149 149 149 149 137 137 152 152 152 152
 152 152 180 180 180 180 180 180 180 180 180 175 246 246 246 246 246 246 149 149
 149 149 149 137 137 137 152 152 152 152 152 180 180 180 180 180 180 180 180 180
 246 246 246 246 246 246 246 149 149 149 149 149 137 137 137 137 137 152 152 16
 180 180 180 180 180 180 180 180 180 246 246 246 246 246 246 246 246 149 149 149
 149 137 137 137 137 137 152 152 16 16 180 180 180 180 180 180 180 246 246 246
 246 246 246 246 246 246 149 147 147 147 137 137 137 137 137 137 16 16 119 119
 119 180 180 180 180 185 185 246 246 246 246 246 246 148 148 242 242 242 147 154
 154 154 154 154 154 119 119 119 119 119 119 119 119 185 185 185 30 30 246 246
 148 148 148 148 242 242 242 242 51 51 51 51 51 51 119 119 119 119 119 119
 119 119 185 185 185 185 118 118 118 148 148 148 148 242 242 242 242 51 51 51
 51 51 41 41 119 119 119 119 119 119 119 185 185 185 185 118 118 118 148 148
 148 148 242 242 242 49 51 51 51 51 51 41 41 119 119 119 119 119 119 119
 185 185 185 185 118 118 118 69 69 69 69 69 242 242 49 51 51 51 51 51
 41 41 41 119 119 119 119 119 185 185 185 185 185 88 118 69 69 69 69 69
 11 11 11 11 203 203 203 203 203 41 41 216 216 14 14 119 119 185 88 88
 88 88 88 88 69 69 69 69 69 11 11 11 142 203 203 203 203 203 41 216
 216 216 216 14 14 14 185 88 88 88 88 88 88 88 69 69 69 69 11 11
 11 142 142 142 203 203 203 66 66 216 216 14 14 14 14 24 88 88 88 88
 88 88 88 69 69 69 69 69 11 166 166 166 166 166 176 176 66 66 66 14
 14 14 38 38 24 88 88 88 88 88 88 88 69 69 69 69 69 166 166 166
 166 166 166 176 176 66 66 66 66 38 38 38 24 24 88 88 88 88 88 88
 88 117 117 15 15 15 166 166 166 166 166 166 176 176 66 66 66 66 38 38
 38 38 24 88 88 88 88 88 88 88 117 117 15 15 117 166 166 166 166 166
 166 176 176 66 66 66 66 38 38 38 38 38 186 186 186 186 88 88 117 117
 117 15 117 117 26 26 166 166 166 176 176 176 66 66 66 66 38 38 38 38
 38 186 186 186 186 186 88 100 100 100 100 100 100 26 26 26 26 146 146 146
 176 66 66 196 196 196 196 38 227 186 186 186 186 186 186 244 244 100 100 100
 100 100 26 26 26 26 146 146 146 146 66 196 196 196 196 196 227 227 227 186
 186 186 186 186 244 244 100 100 100 100 100 26 26 26 26 146 146 146 146 196
 196 196 196 196 196 227 227 227 186 186 186 13 13 244 244 244 100 100 100 100
 26 26 26 26 238 238 146 138 196 196 196 196 196 196 240 227 227 186 186 13
 13 13 241 241 241 241 241 241 100 26 238 238 238 238 238 138 138 138 138 196
 196 196 160 240 240 240 85 85 13 13 13 241 241 241 241 241 241 239 238 238
 238 238 238 238 222 222 222 222 170 170 160 160 240 240 85 85 85 85 13 13
 241 241 241 241 241 241 239 238 238 238 238 238 222 222 222 222 222 170 170 170
 160 85 85 85 85 85 85 85 13 241 241 241 241 241 241 239 238 238 238 238
 238 222 222 222 222 222 170 170 55 55 55 85 85 85 85 85 85 85 241 241
 241 241 241 241 239 238 238 238 238 238 222 222 222 222 222 222 55 55 55 55
 85 85 85 85 85 85 98 98 98 98 98 98 149 149 149 149 6 6 6 222
 222 222 222 222 55 55 55 55 55 180 180 180 180 85 85 98 98 98 98 98
 98 149 149 149 149 149 6 6 92 222 222 222 222 114 55 55 55 180 180 180
 180 180 180 175 175 98 98 98 98 98 149 149 149 149 149 149 92 137 152 152
 152 114 114 180 180 180 180 180 180 180 180 175 175 175 246 246 246 246 246 149
 149 149 149 149 149 137 137 137 152 152 16 16 16 180 180 180 180 180 180 180
 175 175 175 246 246 246 246 246 149 149 149 149 149 137 137 137 137 137 137 16
 16 16 180 180 180 180 180 180 180 175 175 246 246 246 246 246 246 246 149 149
 149 149 137 137 137 137 137 137 16 16 16 16 180 180 180 180 180 180 175 175
 246 246 246 246 246 246 246 147 147 147 147 137 137 137 137 137 137 16 16 16
 16 119 180 180 180 113 185 113 175 246 246 246 246 246 148 148 242 147 147 147
 147 154 154 154 154 54 54 16 119 119 119 119 119 180 113 185 113 17 17 17
 17 148 148 148 148 242 242 147 147 51 51 51 51 51 54 54 54 119 119 119
 119 119 119 185 185 185 17 17 17 17 148 148 148 148 242 242 242 242 51 51
 51 51 51 54 54 54 119 119 119 119 119 119 185 185 185 185 17 17 17 148
 148 148 148 242 242 242 242 51 51 51 51 51 54 54 54 119 119 119 119 119
 119 185 185 185 185 118 118 69 69 69 69 69 11 11 11 11 203 203 203 203
 203 41 14 14 14 14 119 119 119 185 185 185 185 88 88 88 69 69 69 69
 69 11 11 11 11 203 203 203 203 203 41 14 14 14 14 14 14 119 185 88
 88 88 88 88 88 69 69 69 69 69 11 11 11 142 203 203 203 203 203 203
 14 14 14 14 14 14 14 14 88 88 88 88 88 88 88 69 69 69 69 11
 11 11 142 142 203 203 203 203 66 14 14 14 14 14 14 14 24 88 88 88
 88 88 88 88 69 69 69 69 11 11 142 142 142 142 203 203 176 66 66 66
 14 14 14 24 24 24 88 88 88 88 88 88 88 88 69 69 69 69 11 166
 166 166 166 166 176 176 66 66 66 66 38 24 24 24 24 24 88 88 88 88
 88 88 117 117 117 117 117 166 166 166 166 166 166 176 176 66 66 66 66 38
 24 24 24 24 24 88 88 88 88 88 58 117 117 117 117 117 117 166 166 166
 166 166 176 176 66 66 66 66 38 38 24 24 24 186 186 186 186 58 58 58
 117 117 15 15 15 26 26 166 166 166 166 176 176 66 66 66 66 38 38 24
 24 24 186 186 186 186 186 58 58 100 100 100 100 100 26 26 26 26 166 166
 176 176 66 66 196 196 196 227 227 227 227 186 186 186 186 186 244 244 100 100
 100 100 100 26 26 26 26 26 111 111 176 196 196 196 196 196 196 227 227 227
 186 186 186 186 186 244 244 244 100 100 100 100 26 26 26 26 26 111 111 111
 196 196 196 196 196 196 227 227 227 186 186 186 186 244 244 244 244 244 100 100
 100 26 26 238 238 238 238 111 111 196 196 196 196 196 196 227 227 227 186 186
 13 13 241 241 241 241 241 241 241 241 26 238 238 238 238 238 238 222 222 222
 196 196 196 196 153 227 227 85 85 85 13 241 241 241 241 241 241 241 241 238
 238 238 238 238 238 222 222 222 222 222 153 153 153 153 85 85 85 85 85 85
 241 241 241 241 241 241 241 241 238 238 238 238 238 222 222 222 222 222 222 170
 55 55 55 85 85 85 85 85 85 241 241 241 241 241 241 241 241 238 238 238
 238 238 222 222 222 222 222 222 55 55 55 55 85 85 85 85 85 85 85 241
 98 98 98 241 241 241 238 238 238 238 238 222 222 222 222 222 222 55 55 55
 55 55 85 85 85 85 85 98 98 98 98 98 98 149 149 149 149 6 6 6
 222 222 222 222 114 114 55 55 55 55 80 80 180 85 175 175 98 98 98 98
 98 98 149 149 149 149 6 6 6 92 92 222 222 114 114 114 55 55 55 80
 180 180 175 175 175 175 98 98 98 98 98 149 149 149 149 149 6 92 92 92
 92 92 114 114 114 55 55 180 180 180 180 175 175 175 175 98 98 98 98 98
 149 149 149 149 149 92 92 92 92 92 92 16 16 16 16 180 180 180 180 180
 175 175 175 175 246 246 246 246 246 149 149 149 149 149 92 92 92 92 92 16
 16 16 16 16 180 180 180 180 180 175 175 175 175 246 246 246 246 246 149 149
 149 149 149 137 137 137 137 137 16 16 16 16 16 16 180 155 180 180 175 175
 175 210 210 246 246 246 246 149 147 147 147 147 147 137 137 137 137 16 16 16
 16 16 16 155 155 155 113 113 113 210 210 210 210 246 246 148 148 147 147 147
 147 147 154 154 154 54 54 54 16 16 16 16 119 155 155 113 113 113 17 17
 17 17 17 148 148 148 147 147 147 147 147 51 51 51 54 54 54 54 119 119
 119 119 119 113 113 113 113 17 17 17 17 17 148 148 148 242 242 147 147 147
 51 51 51 54 54 54 54 119 119 119 119 119 119 113 113 113 17 17 17 17
 17 148 148 148 242 242 242 147 203 203 203 203 54 54 54 54 119 119 119 119
 119 119 185 185 185 185 17 17 76 69 69 69 69 11 11 11 203 203 203 203
 203 203 54 54 14 14 14 14 119 119 119 185 185 185 88 88 76 76 76 69
 69 69 11 11 11 11 203 203 203 203 203 54 14 14 14 14 14 53 53 53
 88 88 88 88 88 76 76 76 69 69 69 11 11 11 142 203 203 203 203 203
 203 14 14 14 14 14 53 53 53 82 82 88 88 88 88 76 76 69 69 69
 11 11 11 142 142 203 203 203 203 203 14 14 14 14 53 53 53 82 82 82
 88 88 88 88 88 76 69 69 69 11 11 142 142 142 142 203 203 203 66 66
 66 14 14 53 24 24 24 24 88 88 88 88 88 88 76 69 69 69 69 11
 142 142 142 142 142 176 176 66 66 66 66 14 24 24 24 24 24 88 88 88
 88 58 58 58 117 117 117 117 166 166 166 166 166 166 176 176 66 66 66 66
 38 24 24 24 24 24 88 88 58 58 58 58 58 117 117 117 117 117 166 166
 166 166 166 176 176 66 66 66 66 38 24 24 24 24 186 186 186 58 58 58
 58 58 15 15 15 15 26 26 166 166 166 166 176 176 66 66 66 66 196 24
 24 24 24 227 186 186 58 58 58 58 58 100 100 100 100 26 26 26 26 166
 111 176 176 66 66 196 196 196 227 227 227 227 227 186 186 186 58 58 244 244
 100 100 100 100 26 26 26 26 111 111 111 111 196 196 196 196 196 227 227 227
 227 227 186 186 186 12 12 244 244 244 100 100 100 26 26 26 26 111 111 111
 111 196 196 196 196 196 227 227 227 227 186 186 186 12 12 244 244 244 244 244
 100 100 26 238 238 238 111 111 111 111 111 196 196 196 153 153 153 227 227 186
 186 13 241 241 241 241 241 241 241 241 241 238 238 238 238 238 238 111 111 222
 222 196 153 153 153 153 153 227 85 85 85 13 241 241 241 241 241 241 241 241
 238 238 238 238 238 238 222 222 222 222 222 153 153 153 153 153 85 85 85 85
 85 241 241 241 241 241 241 241 241 238 238 238 238 238 238 222 222 222 222 222
 153 153 153 55 85 85 85 85 85 85 241 241 241 241 241 241 241 241 238 238
 238 238 238 222 222 222 222 222 222 55 55 55 55 55 85 85 85 85 85 85
 241 98 98 98 241 241 241 67 238 238 238 238 222 222 222 222 222 222 55 55
 55 55 55 85 80 85 85 99 99 99 99 99 99 99 149 149 149 6 6 6
 6 6 222 222 222 114 114 114 55 55 55 80 80 80 80 175 175 99 99 99
 99 99 99 149 149 149 149 6 6 6 92 92 92 222 114 114 114 114 55 80
 80 80 175 175 175 175 175 99 99 99 99 99 149 149 149 149 6 6 92 92
 92 92 92 114 114 114 114 55 80 80 80 175 175 175 175 175 175 99 99 99
 99 149 149 149 149 149 92 92 92 92 92 16 16 16 16 16 16 180 180 180
 155 175 175 175 175 175 246 246 246 246 149 149 149 149 149 92 92 92 92 92
 16 16 16 16 16 16 155 155 155 155 175 175 175 175 210 210 246 246 246 149
 149 149 149 149 92 92 92 92 92 16 16 16 16 16 16 155 155 155 155 175
 175 175 210 210 210 210 246 246 149 147 147 147 147 147 137 137 92 16 16 16
 16 16 16 16 155 155 155 113 113 113 210 210 210 210 210 246 148 148 147 147
 147 147 147 147 154 54 54 54 54 16 16 16 16 155 155 155 113 113 113 17
 17 17 17 17 17 148 148 147 147 147 147 147 147 51 54 54 54 54 54 54
 16 119 119 155 113 113 113 113 17 17 17 17 17 17 148 148 242 147 147 147
 147 79 51 51 54 54 54 54 54 119 119 119 119 113 113 113 113 17 17 17
 17 17 17 148 148 242 242 147 188 203 203 203 203 54 54 54 54 54 119 53
 119 119 113 113 113 113 17 17 17 76 76 76 69 69 11 11 11 203 203 203
 203 203 203 54 54 54 14 53 53 53 53 113 113 185 185 82 17 76 76 76
 76 69 69 11 11 11 203 203 203 203 203 203 54 54 14 14 53 53 53 53
 53 82 82 82 82 88 76 76 76 76 76 69 11 11 11 142 203 203 203 203
 203 203 14 14 14 53 53 53 53 53 82 82 82 82 88 76 76 76 76 76
 69 11 11 142 142 142 203 203 203 203 203 14 14 53 53 53 53 53 82 82
 82 82 82 88 88 76 76 76 76 69 11 11 142 142 142 142 203 203 203 66
 66 66 53 53 53 53 24 82 82 82 82 88 88 88 76 76 76 76 69 19
 142 142 142 142 142 142 176 176 66 66 66 66 53 24 24 24 24 24 82 82
 58 58 58 58 58 117 117 117 106 106 142 142 142 142 142 176 176 66 66 66
 66 24 24 24 24 24 24 82 82 58 58 58 58 58 117 117 117 117 106 106
 166 166 166 166 176 176 7 7 7 7 24 24 24 24 24 24 186 58 58 58
 58 58 58 58 15 15 124 124 26 166 166 166 111 176 176 7 7 7 7 7
 24 24 24 24 227 186 186 58 58 58 58 58 100 100 124 124 124 26 26 26
 111 111 111 176 7 7 7 196 196 227 227 227 227 227 186 186 58 58 58 58
 244 244 244 124 124 124 124 26 111 111 111 111 111 111 196 196 153 153 227 227
 227 227 227 186 186 12 12 12 12 244 244 244 124 124 124 26 26 111 111 111
 111 111 111 196 196 153 153 153 227 227 227 227 186 186 12 12 12 244 244 244
 244 244 124 124 238 238 238 111 111 111 111 111 111 153 153 153 153 153 153 227
 227 186 164 12 12 241 241 241 241 241 241 241 238 238 238 238 238 111 111 111
 111 222 153 153 153 153 153 153 227 85 85 164 241 241 241 241 241 241 241 241
 241 238 238 238 238 238 238 222 222 222 222 22 153 153 153 153 153 227 85 85
 85 164 241 241 241 241 241 241 241 241 238 238 238 238 238 238 222 222 222 222
 222 22 153 153 153 153 85 85 85 164 164 241 241 241 241 241 241 241 241 238
 238 238 238 238 222 222 222 222 222 222 55 55 55 55 55 85 85 85 85 164
 164 241 99 99 99 241 241 67 67 6 6 6 6 222 222 222 222 222 114 114
 55 55 55 80 80 80 80 164 164 99 99 99 99 99 99 99 67 67 67 6
 6 6 6 222 222 222 114 114 114 114 55 80 80 80 80 80 175 175 99 99
 99 99 99 99 67 67 67 67 6 6 6 92 92 92 92 114 114 114 114 114
 80 80 80 80 175 175 175 175 99 99 99 99 99 149 149 149 67 6 6 92
 92 92 92 92 114 114 114 114 114 80 80 80 175 175 175 175 175 175 99 99
 99 99 149 149 149 149 6 92 92 92 92 92 16 16 16 16 16 16 155 155
 155 155 175 175 175 175 175 96 96 96 96 149 149 149 149 149 92 92 92 92
 92 16 16 16 16 16 16 155 155 155 155 175 175 175 175 210 210 96 96 96
 149 149 149 149 149 92 92 92 92 92 16 16 16 16 16 16 155 155 155 155
 175 175 175 210 210 210 210 96 96 96 147 147 147 147 92 92 92 92 92 16
 16 16 16 16 16 155 155 155 113 113 113 210 210 210 210 210 96 96 148 147
 147 147 147 147 79 79 79 54 54 54 16 16 16 16 155 155 155 113 113 113
 17 210 210 210 17 17 17 188 188 188 188 188 188 79 79 79 54 54 54 54
 54 16 16 155 155 113 113 113 113 17 17 17 17 17 17 148 148 188 188 188
 188 188 79 79 79 54 54 54 54 54 16 53 53 113 113 113 113 113 17 17
 17 17 17 17 148 188 188 188 188 188 188 79 79 79 79 54 54 54 54 53
 53 53 113 113 113 247 247 17 17 17 76 76 76 76 69 188 188 188 188 203
 203 79 79 79 54 54 54 54 53 53 53 53 113 247 247 247 247 17 76 76
 76 76 76 69 11 11 11 203 203 203 203 203 203 194 194 54 53 53 53 53
 53 53 82 82 82 82 82 76 76 76 76 76 69 19 19 11 142 203 203 203
 203 203 194 194 194 53 53 53 53 53 53 82 82 82 82 82 76 76 76 76
 76 19 19 19 19 142 142 203 203 203 203 194 194 194 53 53 53 53 53 82
 82 82 82 82 82 76 76 76 76 76 19 19 19 19 142 142 142 203 203 203
 194 194 168 168 53 53 53 53 82 82 82 82 82 82 58 76 76 76 76 19
 19 19 106 142 142 142 142 176 7 7 7 168 168 168 212 24 24 82 82 82
 82 58 58 58 58 58 58 19 19 106 106 106 106 142 142 142 192 7 7 7
 7 7 168 24 24 24 24 24 82 58 58 58 58 58 58 58 124 124 106 106
 106 106 106 106 192 192 7 7 7 7 7 7 24 24 24 24 24 58 58 58
 58 58 58 58 58 124 124 124 124 124 106 106 192 192 192 7 7 7 7 7
 7 7 24 24 24 227 58 58 58 58 58 58 58 58 124 124 124 124 124 124
 111 111 111 111 7 7 7 7 7 7 227 227 227 227 227 186 58 58 58 58
 58 58 244 124 124 124 124 124 124 111 111 111 111 111 7 7 7 153 153 153
 227 227 227 227 186 12 12 12 12 12 244 244 124 124 124 124 124 124 111 111
 111 111 111 111 7 153 153 153 153 153 227 227 227 12 12 12 12 12 12 244
 244 244 124 124 124 124 238 111 111 111 111 111 111 22 22 153 153 153 153 153
 227 227 164 164 12 12 12 12 241 241 241 241 124 124 238 238 238 111 111 111
 111 111 22 22 22 153 153 153 153 153 164 164 164 164 57 57 241 241 241 241
 241 241 238 238 238 238 238 111 111 111 222 22 22 22 22 153 153 153 153 164
 164 164 164 164 57 241 241 241 241 241 241 238 238 238 238 238 238 222 222 222
 22 22 22 22 22 153 153 80 164 164 164 164 164 164 241 241 241 241 241 67
 67 67 238 238 238 222 222 222 222 222 22 22 55 55 55 55 80 164 164 164
 164 164 164 99 99 99 99 67 67 67 67 6 6 6 222 222 222 222 222 114
 114 55 55 55 80 80 80 164 164 164 164 99 99 99 99 99 67 67 67 67
 67 6 6 6 6 222 114 114 114 114 114 114 80 80 80 80 80 68 68 68
 99 99 99 99 99 67 67 67 67 67 6 6 92 92 92 92 114 114 114 114
 114 80 80 80 80 175 68 68 68 99 99 99 99 99 67 67 67 67 67 6
 92 92 92 92 92 114 114 114 114 114 80 80 80 175 175 175 175 68 68 99
 99 99 99 67 67 67 67 67 92 92 92 92 92 16 16 16 16 16 16 155
 155 155 155 175 175 175 175 68 96 96 96 96 96 149 149 67 149 92 92 92
 92 92 16 16 16 16 16 16 155 155 155 155 175 175 175 175 210 96 96 96
 96 96 149 149 149 92 92 92 92 92 92 16 16 16 16 16 16 155 155 155
 155 175 175 175 210 210 210 96 96 96 96 188 188 147 188 92 92 92 92 16
 16 16 16 16 16 16 155 155 155 113 113 113 210 210 210 210 210 96 96 96
 188 188 188 188 188 79 79 79 54 54 54 42 16 16 16 155 155 155 113 113
 113 17 210 210 17 17 17 17 188 188 188 188 188 188 79 79 79 79 54 54
 54 54 16 16 155 155 113 113 113 113 17 17 17 17 17 17 17 188 188 188
 188 188 188 79 79 79 79 54 54 54 54 54 53 53 113 113 113 247 247 17
 17 17 17 17 17 17 188 188 188 188 188 188 79 79 79 79 54 54 54 54
 53 53 53 113 113 247 247 247 247 17 17 76 76 76 76 71 188 188 188 188
 104 79 79 79 79 79 54 54 54 53 53 53 53 247 247 247 247 247 17 76
 76 76 76 76 71 71 71 71 104 104 104 79 79 194 194 194 194 53 53 53
 53 53 247 215 215 215 215 215 76 76 76 76 76 71 19 19 19 104 104 104
 104 203 194 194 194 194 53 53 53 53 53 215 82 82 82 82 82 76 76 76
 76 76 19 19 19 19 104 104 104 203 203 194 194 194 194 168 53 53 53 53
 82 82 82 82 82 82 76 76 76 76 19 19 19 19 19 106 106 104 203 203
 194 194 194 168 168 168 212 212 212 82 82 82 82 82 82 58 76 76 76 19
 19 19 19 106 106 106 142 142 192 7 7 7 168 168 168 212 212 212 82 82
 82 82 58 58 58 58 58 58 19 19 106 106 106 106 106 106 192 192 7 7
 7 7 7 7 212 212 212 82 82 82 82 58 58 58 58 58 58 124 124 106
 106 106 106 106 106 192 192 192 7 7 7 7 7 7 24 24 24 82 58 58
 58 58 58 58 58 58 124 124 124 36 36 36 106 192 192 192 192 7 7 7
 7 7 7 24 24 24 227 58 58 58 58 58 58 58 58 124 124 124 124 36
 36 36 192 192 192 192 7 7 7 7 7 227 227 227 227 227 58 58 58 58
 58 58 58 58 124 124 124 124 124 36 122 122 122 111 192 7 7 7 7 153
 153 153 227 227 227 45 45 45 45 12 12 45 244 124 124 124 124 124 124 111
 111 111 111 111 111 7 7 153 153 153 153 153 227 227 45 45 45 45 45 45
 45 244 124 124 124 124 124 124 111 111 111 111 111 111 22 22 153 153 153 153
 153 153 164 164 57 57 45 45 45 45 241 241 124 124 124 124 238 111 111 122
 111 111 111 22 22 22 22 153 153 153 153 164 164 164 164 57 57 57 57 241
 241 110 110 124 238 238 238 122 122 122 111 22 22 22 22 22 22 153 153 153
 164 164 164 164 164 57 57 57 241 241 110 110 67 238 238 238 238 122 222 222
 222 22 22 22 22 22 153 153 153 164 164 164 164 164 164 57 57 241 241 67
 67 67 67 67 6 6 222 222 222 222 22 22 22 22 22 55 80 80 164 164
 164 164 164 164 99 99 99 99 67 67 67 67 67 6 6 6 222 222 222 114
 114 114 55 55 55 80 80 80 164 164 164 164 164 99 99 99 99 67 67 67
 67 67 67 6 6 92 92 114 114 114 114 114 114 80 80 80 80 68 68 68
 68 99 99 99 99 99 67 67 67 67 67 67 6 92 92 92 27 114 114 114
 114 114 80 80 80 80 68 68 68 68 68 99 99 99 99 67 67 67 67 67
 67 92 92 92 92 81 81 81 114 114 114 80 80 80 175 68 68 68 68 68
 96 96 96 96 67 67 67 67 67 67 92 92 92 92 81 81 81 16 16 16
 155 155 155 155 175 175 68 68 68 96 96 96 96 96 67 67 67 67 92 92
 92 92 92 16 16 16 16 16 16 155 155 155 155 175 175 68 68 68 96 96
 96 96 96 67 67 67 67 92 92 92 92 16 16 16 16 16 16 16 155 155
 155 155 107 107 107 107 210 96 96 96 96 96 188 188 188 188 92 92 92 79
 42 42 42 42 16 16 16 155 155 155 113 113 107 107 210 210 210 96 96 96
 96 188 188 188 188 188 79 79 79 79 42 42 42 42 16 16 155 155 155 113
 113 107 107 17 17 17 17 17 17 188 188 188 188 188 188 79 79 79 79 42
 42 42 42 16 16 155 113 113 113 113 247 17 17 17 17 17 17 17 188 188
 188 188 188 188 79 79 79 79 79 42 54 54 54 53 115 115 113 247 247 247
 17 17 17 17 17 17 71 71 188 188 188 188 188 79 79 79 79 79 54 54
 54 54 53 115 115 115 247 247 247 247 17 17 76 76 76 71 71 71 188 188
 188 104 79 79 79 79 79 194 194 54 53 53 115 115 247 247 247 247 247 247
 76 76 76 76 71 71 71 71 71 104 104 104 79 50 194 194 194 194 194 53
 53 53 115 247 215 215 215 215 215 76 76 76 76 71 71 71 71 71 104 104
 104 104 50 194 194 194 194 168 53 53 53 53 215 215 215 215 215 215 76 76
 76 76 19 19 19 19 71 104 104 104 104 194 194 194 194 194 168 168 212 212
 212 215 82 82 82 82 82 76 76 76 76 19 19 19 19 106 106 104 104 104
 194 194 194 194 168 168 168 212 212 212 82 82 82 82 82 82 58 58 76 19
 19 19 19 106 106 106 106 104 192 192 192 7 7 168 168 168 212 212 212 82
 82 82 82 58 58 58 58 44 44 19 19 106 106 106 106 106 106 192 192 192
 7 7 7 7 7 212 212 212 82 82 82 58 58 58 58 58 44 44 124 124
 106 106 106 106 106 192 192 192 192 7 7 7 7 7 7 212 212 24 82 82
 58 58 58 58 58 44 44 124 124 124 36 36 36 106 192 192 192 192 192 7
 7 7 7 7 7 7 24 219 58 58 58 58 58 58 44 44 124 124 124 124
 36 36 106 192 192 192 192 192 7 7 7 7 7 200 200 227 219 219 45 45
 45 45 45 45 44 124 124 124 124 124 36 122 122 122 192 192 192 7 7 7
 200 200 200 200 200 219 45 45 45 45 45 45 45 45 124 124 124 124 124 124
 122 122 122 122 122 192 7 7 200 200 200 200 200 200 219 45 45 45 45 45
 45 45 110 110 124 124 124 124 124 122 122 122 122 122 122 22 22 22 200 200
 200 200 200 164 164 57 57 57 57 57 57 110 110 110 124 124 124 122 122 122
 122 122 122 122 22 22 22 22 200 200 200 200 164 164 164 164 57 57 57 57
 110 110 110 110 124 124 78 78 122 122 122 122 22 22 22 22 22 22 200 200
 200 164 164 164 164 164 57 57 57 110 110 110 110 67 67 78 78 122 122 122
 122 22 22 22 22 22 22 200 200 200 164 164 164 164 164 164 57 57 110 110
 110 67 67 67 67 67 6 122 222 222 22 22 22 22 22 22 55 80 206 164
 164 164 164 164 164 99 99 99 99 67 67 67 67 67 67 6 6 222 222 22
 22 114 114 22 22 55 80 80 164 164 164 164 164 164 99 94 94 94 94 67
 67 67 67 67 67 27 27 27 27 81 114 114 114 114 80 80 80 68 68 68
 68 68 68 99 94 94 94 94 67 67 67 67 67 67 92 27 27 27 81 81
 81 114 114 80 80 80 68 68 68 68 68 68 99 94 94 94 94 67 67 67
 67 67 67 27 27 27 81 81 81 81 114 114 80 141 141 141 68 68 68 68
 68 96 96 96 94 94 67 67 67 67 67 92 27 27 27 81 81 81 81 16
 16 141 141 141 141 68 68 68 68 68 96 96 96 96 61 67 67 67 67 67
 92 92 27 27 81 81 81 16 16 16 141 141 141 141 175 68 68 68 68 96
 96 96 96 96 61 61 67 67 92 92 92 157 81 81 81 42 16 16 16 141
 141 141 63 107 107 107 107 68 96 96 96 96 96 61 188 188 188 188 84 79
 79 42 42 42 42 42 16 16 141 141 63 63 107 107 107 107 107 96 96 96
 96 61 188 188 188 188 188 79 79 79 42 42 42 42 42 42 42 141 141 63
 113 107 107 107 107 107 17 17 96 96 188 188 188 188 188 188 220 220 79 79
 42 42 42 42 42 115 115 115 113 247 247 107 107 17 17 17 17 17 218 188
 188 188 188 188 188 220 220 79 79 42 42 42 42 42 115 115 115 115 247 247
 247 247 17 17 17 17 218 71 71 188 188 188 188 188 220 220 79 50 50 42
 42 42 115 115 115 115 115 247 247 247 247 17 17 17 76 71 71 71 71 71
 188 188 188 220 50 50 50 50 50 194 194 53 115 115 115 115 247 247 247 247
 247 76 76 76 71 71 71 71 71 71 104 104 104 50 50 50 50 194 194 194
 75 75 115 115 115 215 215 215 215 215 76 76 76 71 71 71 71 71 71 104
 104 104 104 50 50 194 194 194 168 75 75 75 115 215 215 215 215 215 215 76
 76 76 71 71 71 71 71 71 104 104 104 104 50 194 194 194 168 168 168 212
 212 212 215 215 215 215 82 171 171 76 76 71 19 19 19 19 71 106 104 104
 56 192 194 194 168 168 168 168 212 212 212 82 82 82 82 82 171 58 44 44
 19 19 19 19 106 106 106 106 106 192 192 192 192 7 168 168 168 212 212 212
 82 82 82 171 171 58 58 44 44 44 19 19 19 106 106 106 106 192 192 192
 192 192 7 7 7 7 212 212 212 82 82 82 58 58 58 58 44 44 44 232
 232 232 106 106 106 106 192 192 192 192 192 7 7 7 7 7 212 212 24 219
 219 58 58 58 58 44 44 44 124 124 124 36 36 36 106 192 192 192 192 192
 7 7 7 7 7 200 200 200 219 219 219 58 58 58 44 44 44 124 124 124
 124 36 36 36 192 192 192 192 192 192 7 7 7 200 200 200 200 219 219 219
 214 214 214 214 44 44 124 124 124 124 124 36 122 122 192 192 192 192 192 7
 200 200 200 200 200 200 219 219 214 214 214 214 214 214 44 124 124 124 124 124
 124 122 122 122 122 192 192 192 200 200 200 200 200 200 200 219 219 214 214 214
 214 214 214 110 110 124 124 124 124 124 122 122 122 122 236 236 200 200 200 200
 200 200 200 200 206 164 57 57 57 57 57 110 110 110 110 110 124 124 78 78
 122 122 122 236 236 22 22 22 200 200 200 200 200 206 164 164 164 57 57 57
 110 110 110 110 110 124 78 78 78 78 236 236 236 236 22 22 22 22 200 200
 200 200 206 206 164 164 164 57 57 110 110 110 110 110 110 78 78 78 78 236
 236 236 22 22 22 22 22 22 200 200 200 206 206 164 164 164 164 57 110 110
 110 110 110 67 67 78 78 78 236 236 236 22 22 22 22 22 22 200 206 206
 206 206 164 164 164 164 164 110 110 110 110 67 67 67 67 67 67 236 236 27
 27 22 22 22 22 22 200 80 206 206 206 164 164 164 164 94 94 94 94 94
 94 67 67 67 67 67 27 27 27 27 27 27 114 114 114 80 80 80 68 68
 68 68 68 68 94 94 94 94 94 94 67 67 67 67 67 27 27 27 27 81
 81 81 81 173 141 141 141 68 68 68 68 68 68 68 94 94 94 94 94 67
 67 67 67 67 27 27 27 81 81 81 81 81 141 141 141 141 141 68 68 68
 68 68 68 94 94 94 94 94 67 67 67 67 27 27 27 27 81 81 81 81
 81 141 141 141 141 141 68 68 68 68 68 68 96 61 61 61 61 67 67 67
 40 40 27 27 27 81 81 81 81 16 141 141 141 141 63 63 107 68 68 68
 68 96 61 61 61 61 61 40 40 40 84 157 157 157 81 81 42 42 16 141
 141 141 141 63 107 107 107 107 107 96 96 61 61 61 61 61 188 188 84 84
 84 84 157 42 42 42 42 16 141 141 141 63 63 107 107 107 107 107 96 96
 61 61 61 61 188 188 188 84 84 84 84 42 42 42 42 42 42 141 141 141
 63 63 107 107 107 107 107 17 17 61 61 61 188 188 188 188 220 220 220 220
 42 42 42 42 42 42 115 115 115 115 115 107 107 107 107 107 17 17 218 218
 218 188 188 188 188 220 220 220 220 50 42 42 42 42 42 115 115 115 115 115
 247 247 247 17 17 17 218 218 218 218 71 188 188 188 220 220 220 50 50 50
 42 42 42 115 115 115 115 115 115 247 247 247 17 17 17 218 218 218 71 71
 71 71 181 181 220 50 50 50 50 50 194 194 115 115 115 115 115 247 247 247
 247 247 76 218 218 218 71 71 71 71 71 181 181 56 56 50 50 50 50 194
 194 75 75 115 115 115 215 215 215 215 215 76 76 71 71 71 71 71 71 71
 181 181 56 56 50 50 50 194 194 168 75 75 75 115 215 215 215 215 171 171
 171 76 71 71 71 71 71 71 71 181 181 56 56 56 194 194 194 168 168 75
 75 75 212 215 171 171 171 171 171 171 171 71 71 71 71 71 71 71 181 181
 56 56 56 192 194 168 168 168 168 212 212 212 82 171 171 171 171 171 171 44
 44 131 131 131 131 131 106 106 106 192 192 192 192 192 192 165 165 165 212 212
 212 82 171 171 171 171 171 171 44 44 44 131 131 131 131 106 106 106 192 192