# vtk DataFile Version 2.0
Data set from ImportExport Version 6.5.171.b0b162591
ASCII

DATASET RECTILINEAR_GRID
DIMENSIONS 30 30 30
X_COORDINATES 30 float
-1.250000 1.250000 3.750000 6.250000 8.750000 11.250000 13.750000 16.250000 18.750000 21.250000 23.750000 26.250000 28.750000 31.250000 33.750000 36.250000 38.750000 41.250000 43.750000 46.250000 48.750000 
51.250000 53.750000 56.250000 58.750000 61.250000 63.750000 66.250000 68.750000 71.250000 
Y_COORDINATES 30 float
-1.250000 1.250000 3.750000 6.250000 8.750000 11.250000 13.750000 16.250000 18.750000 21.250000 23.750000 26.250000 28.750000 31.250000 33.750000 36.250000 38.750000 41.250000 43.750000 46.250000 48.750000 
51.250000 53.750000 56.250000 58.750000 61.250000 63.750000 66.250000 68.750000 71.250000 
Z_COORDINATES 30 float
-1.250000 1.250000 3.750000 6.250000 8.750000 11.250000 13.750000 16.250000 18.750000 21.250000 23.750000 26.250000 28.750000 31.250000 33.750000 36.250000 38.750000 41.250000 43.750000 46.250000 48.750000 
51.250000 53.750000 56.250000 58.750000 61.250000 63.750000 66.250000 68.750000 71.250000 
CELL_DATA 24389
SCALARS FeatureIds int 1
LOOKUP_TABLE default
 8 8 111 111 111 111 111 111 111 88 88 88 88 59 59 59 59 59 225 245
 245 245 245 245 245 94 94 94 94 94 94 111 111 111 111 111 111 88 88 88
 88 88 59 59 59 59 59 245 245 245 245 245 245 245 94 94 94 94 94 94
 111 111 111 111 111 88 88 88 88 88 88 59 59 59 59 59 245 245 245 245
 245 245 245 94 94 94 94 94 127 127 192 195 195 195 88 88 88 88 88 88
 59 59 59 59 59 245 245 245 245 245 245 94 94 94 94 94 94 127 192 192
 192 195 92 92 88 88 88 88 88 88 59 59 59 31 194 245 245 245 245 245
 94 94 94 94 94 94 127 192 192 192 92 92 92 92 88 88 88 88 88 104
 31 31 31 194 194 194 143 143 143 94 94 94 94 94 94 127 192 192 192 92
 92 92 92 92 88 88 104 104 104 20 20 20 194 194 194 194 143 143 94 94
 94 94 94 94 127 192 192 192 92 92 92 92 120 120 120 104 104 104 20 20
 20 194 194 194 194 174 174 174 94 94 94 94 226 226 192 192 192 87 92 120
 120 120 120 120 104 104 104 20 20 20 20 194 194 194 174 174 174 174 191 191
 191 226 226 226 87 87 87 87 120 120 120 120 120 104 104 104 20 20 20 20
 194 194 174 174 174 174 174 191 191 191 226 226 226 87 87 87 87 87 120 120
 120 120 120 104 104 20 20 20 20 54 54 54 54 174 174 174 191 191 226 226
 226 226 87 87 87 87 87 120 120 120 120 120 104 104 20 20 20 33 54 54
 54 54 54 54 54 191 191 226 226 226 226 87 87 87 87 87 120 120 120 120
 84 84 33 33 33 33 33 33 54 54 54 54 54 54 7 191 226 148 148 148
 148 87 87 87 87 84 84 84 84 84 84 33 33 33 33 33 33 54 54 54
 54 54 7 7 7 7 7 148 148 154 108 108 108 108 84 84 84 84 84 84
 84 33 33 33 33 33 54 54 54 69 69 7 7 7 7 7 7 154 154 108
 108 108 108 84 84 84 84 84 84 84 33 33 33 33 33 54 54 69 69 69
 69 7 7 7 7 7 154 154 108 108 108 108 227 84 84 84 84 84 84 51
 51 33 33 133 133 133 69 69 69 69 69 7 7 7 86 86 86 86 86 108
 108 227 84 84 84 84 51 51 51 51 51 133 133 133 133 69 69 69 69 69
 69 7 86 86 86 86 86 86 86 86 227 84 84 84 51 51 51 51 51 51
 133 133 133 133 133 69 69 152 69 69 69 86 86 86 86 86 86 21 21 21
 84 84 51 51 51 51 51 51 51 133 133 133 133 133 152 152 152 152 69 69
 241 86 86 86 86 86 21 21 21 131 51 51 51 51 51 51 51 51 133 133
 133 133 133 249 249 152 249 249 249 241 241 86 86 86 21 21 21 131 131 131
 51 51 51 168 168 168 168 133 133 113 113 113 249 249 249 249 249 241 241 241
 241 86 86 21 34 34 131 131 178 178 178 168 168 168 168 168 133 113 113 113
 113 249 249 249 249 249 241 241 241 241 34 34 34 34 34 34 178 178 178 178
 178 178 168 168 168 113 113 113 113 113 249 249 249 249 249 241 241 241 34 34
 34 34 34 34 34 34 178 178 178 178 178 178 178 178 113 113 113 113 113 113
 249 249 249 249 241 13 13 34 34 34 34 34 34 34 34 178 178 178 178 178
 178 178 178 188 188 188 188 66 66 66 249 249 249 13 13 13 34 34 34 34
 34 34 34 34 178 178 178 178 178 178 178 178 188 188 188 66 66 66 66 66
 249 13 13 13 13 13 34 34 34 34 34 34 34 178 178 178 178 178 178 178
 178 66 66 188 188 188 188 188 188 13 13 13 13 13 8 111 111 111 111 111
 111 111 178 178 178 178 178 178 178 188 188 188 188 188 188 188 188 188 188 13
 13 8 8 8 111 111 111 111 111 88 88 88 88 88 65 59 59 59 225 225
 225 188 188 188 156 156 94 94 94 94 94 8 8 111 111 111 111 111 88 88
 88 88 88 59 59 59 59 225 225 225 156 156 156 156 156 94 94 94 94 94
 94 8 111 111 111 111 88 88 88 88 88 88 59 59 59 59 225 225 225 225
 156 156 156 94 94 94 94 94 94 94 192 192 195 195 195 88 88 88 88 88
 88 88 59 59 59 225 225 225 225 143 143 94 94 94 94 94 94 94 192 192
 192 192 195 92 92 88 88 88 88 88 88 59 31 31 31 194 143 143 143 143
 143 94 94 94 94 94 94 192 192 192 192 92 92 92 92 88 88 88 88 88
 104 31 31 31 194 194 143 143 143 143 143 94 94 94 94 94 192 192 192 192
 92 92 92 92 92 88 88 88 104 104 31 31 31 194 194 194 143 143 143 143
 94 94 94 94 46 192 192 192 192 92 92 92 92 92 120 120 104 104 104 31
 31 31 194 194 194 194 194 174 122 122 122 122 46 46 46 46 46 192 92 92
 120 120 120 120 120 104 104 104 31 31 31 194 194 194 194 194 174 122 122 122
 122 46 226 226 226 87 87 87 87 87 120 120 120 120 104 104 104 20 20 20
 194 194 194 194 174 174 122 122 122 122 191 226 226 226 87 87 87 87 87 3
 120 120 120 120 104 104 20 20 20 20 194 194 54 54 174 122 122 122 191 226
 226 226 226 87 87 87 87 87 3 3 120 120 120 104 74 20 20 20 33 54
 54 54 54 54 122 122 122 226 226 226 226 226 87 87 87 87 87 3 3 84
 84 84 84 206 206 206 206 33 33 54 54 54 54 54 122 122 148 148 148 148
 148 148 87 87 87 3 3 84 84 84 84 84 206 206 206 206 206 206 54 54
 54 54 69 69 7 7 7 7 148 148 148 108 108 108 108 227 84 84 84 84
 84 84 206 206 206 206 206 54 54 54 69 69 69 7 7 7 7 148 148 148
 108 108 108 108 227 84 84 84 84 84 84 206 206 206 206 206 206 69 69 69
 69 69 7 7 7 7 148 148 154 108 108 108 108 227 227 84 84 84 84 51
 51 51 206 206 206 133 133 69 69 69 69 69 7 7 7 86 86 86 86 108
 108 227 227 227 84 84 84 51 51 51 51 51 133 133 133 133 69 69 69 69
 69 69 177 86 86 86 86 86 86 86 86 227 227 84 84 51 51 51 51 51
 51 133 133 133 133 133 69 69 69 69 69 69 86 86 86 86 86 86 21 21
 21 227 84 51 51 51 51 51 51 51 133 133 133 133 133 152 152 152 152 69
 69 86 86 86 86 86 21 21 21 21 131 131 51 51 51 51 51 51 51 133
 133 133 133 133 152 152 152 152 69 69 86 86 86 86 86 21 21 21 131 131
 131 51 51 168 168 168 168 168 133 133 133 133 133 249 249 249 249 249 241 241
 241 241 86 21 21 21 21 131 131 131 178 178 168 168 168 168 168 133 113 113
 113 113 249 249 249 249 249 241 241 241 241 34 34 34 34 34 131 131 178 178
 178 178 178 168 168 168 113 113 113 113 113 249 249 249 249 249 241 13 13 34
 34 34 34 34 34 34 131 178 178 178 178 178 178 168 168 113 113 113 113 113
 24 24 24 249 249 13 13 13 13 34 34 34 34 34 34 34 178 178 178 178
 178 178 178 178 188 188 188 188 188 188 24 24 24 13 13 13 13 13 34 34
 34 34 34 34 34 178 178 178 178 178 178 178 178 188 188 188 188 66 66 66
 24 24 13 13 13 13 13 13 34 34 34 34 34 178 178 178 178 178 178 178
 178 178 188 188 188 66 188 188 188 188 13 13 13 13 13 8 8 111 111 111
 111 111 111 178 178 178 178 178 178 178 66 66 66 66 188 188 188 188 188 13
 13 13 8 8 8 8 111 111 111 111 111 88 88 88 88 65 65 65 225 225
 225 225 225 156 156 156 156 94 94 94 94 8 8 8 111 111 111 111 111 88
 88 88 88 88 65 65 65 225 225 225 225 156 156 156 156 156 94 94 94 94
 94 8 8 111 111 111 111 88 88 88 88 88 88 88 65 59 225 225 225 225
 225 156 156 156 156 94 94 94 94 94 94 192 192 195 195 195 88 88 88 88
 88 88 88 65 59 225 225 225 225 225 143 143 143 94 94 94 94 94 94 192
 192 192 192 195 92 92 88 88 88 88 88 88 31 31 31 194 194 143 143 143
 143 143 143 94 94 94 94 94 192 192 192 192 92 92 92 92 88 88 88 88
 88 31 31 31 31 194 194 143 143 143 143 143 94 94 94 94 94 192 192 192
 192 92 92 92 92 92 88 88 88 31 31 31 31 31 194 194 194 143 143 143
 143 94 94 94 94 46 46 192 192 192 92 92 92 92 92 120 120 104 214 31
 31 31 31 194 194 194 194 194 143 122 122 122 122 46 46 46 46 46 192 87
 92 92 92 120 120 120 214 214 31 31 31 31 194 194 194 194 194 194 122 122
 122 122 46 46 46 46 236 87 87 3 3 3 3 120 120 214 214 31 31 31
 31 194 194 194 194 194 122 122 122 122 122 46 226 226 226 236 87 87 87 3
 3 3 120 120 74 74 74 31 31 31 194 194 194 194 194 122 122 122 122 122
 226 226 226 226 236 87 87 87 3 3 3 3 37 74 74 74 190 206 31 206
 194 194 194 54 122 122 122 122 122 148 148 148 148 236 87 87 87 3 3 3
 3 84 64 74 74 206 206 206 206 206 206 54 54 102 102 122 122 148 148 148
 148 148 148 148 87 3 3 3 84 84 84 64 64 206 206 206 206 206 206 206
 54 93 69 69 69 148 148 148 148 148 148 148 108 108 108 227 227 84 84 84
 64 64 64 206 206 206 206 206 206 93 93 69 69 69 7 7 7 7 148 148
 148 108 108 108 227 227 227 84 84 64 64 64 206 206 206 206 206 206 93 69
 69 69 69 69 7 7 7 148 148 148 108 108 108 227 227 227 64 84 64 64
 64 51 206 206 206 206 133 133 69 69 69 69 69 177 177 177 86 86 86 86
 108 108 227 227 227 227 84 84 51 51 51 51 51 133 133 133 133 69 69 69
 69 69 177 177 177 86 86 86 86 86 21 227 227 227 227 84 51 51 51 51
 51 51 133 133 133 133 133 69 69 69 69 69 177 86 86 86 86 86 21 21
 21 227 227 227 51 51 51 51 51 51 51 133 133 133 133 133 69 152 152 69
 69 69 86 86 86 86 86 21 21 21 21 131 131 51 51 51 51 51 51 51
 133 133 133 133 133 69 152 152 152 69 69 86 86 86 86 21 21 21 21 131
 131 131 131 51 51 168 168 168 51 133 133 133 133 133 249 249 249 249 69 69
 86 86 86 86 21 21 21 21 131 131 131 131 178 168 168 168 168 168 133 133
 113 113 113 234 234 249 249 249 116 13 241 34 34 34 34 34 34 131 131 131
 178 178 178 178 168 168 168 30 30 113 113 24 24 24 24 24 116 116 13 13
 34 34 34 34 34 34 131 131 131 178 178 178 178 178 178 30 30 30 188 188
 24 24 24 24 24 116 13 13 13 13 34 34 34 34 34 34 131 178 178 178
 178 178 178 178 30 30 30 188 188 188 24 24 24 24 13 13 13 13 13 8
 34 34 34 34 34 34 178 178 178 178 178 178 178 30 188 188 188 188 188 188
 24 24 24 13 13 13 13 13 8 8 34 34 34 34 34 178 178 178 178 178
 178 178 178 188 188 188 188 188 66 24 24 13 13 13 13 13 8 8 8 111
 111 111 111 111 178 178 178 178 178 178 178 225 225 225 66 66 188 188 188 188
 13 13 13 8 8 8 8 8 111 111 111 88 88 88 88 65 65 65 65 65
 225 225 225 225 156 156 156 156 94 94 8 8 8 8 8 8 111 111 111 111
 88 88 88 88 88 65 65 65 225 225 225 225 156 156 156 156 156 94 94 94
 94 94 8 8 8 111 111 111 88 88 88 88 88 88 65 65 65 225 225 225
 225 225 156 156 156 156 94 94 94 94 94 8 192 192 195 195 195 88 88 88
 88 88 88 88 65 39 39 225 225 225 225 143 143 143 143 94 94 94 94 94
 192 192 192 192 198 92 92 88 88 88 88 88 88 39 39 39 39 194 143 143
 143 143 143 143 94 94 94 94 94 192 192 192 198 198 92 92 92 88 88 88
 88 39 39 39 39 31 194 194 143 143 143 143 143 94 94 94 94 46 192 192
 192 198 198 92 92 92 92 88 88 88 31 31 31 31 31 194 194 194 143 143
 143 143 122 122 94 94 46 46 46 192 198 198 92 92 92 92 120 214 214 214
 31 31 31 31 194 194 194 194 143 143 122 122 122 122 122 46 46 46 46 46
 3 3 92 3 3 120 214 214 214 214 31 31 31 194 194 194 194 194 194 122
 122 122 122 46 46 46 46 236 236 3 3 3 3 3 3 214 214 214 214 31
 31 31 194 194 194 194 194 194 122 122 122 122 46 46 46 236 236 236 87 3
 3 3 3 3 74 74 74 74 31 31 31 194 194 194 194 194 122 122 122 122
 122 122 148 148 236 236 236 87 3 3 3 3 37 37 74 74 74 190 190 190
 190 190 194 194 102 102 102 122 122 122 148 148 148 148 236 236 87 3 3 3
 3 37 37 37 74 74 190 190 190 190 190 190 190 102 102 102 102 122 148 148
 148 148 148 148 148 87 3 3 3 37 37 37 37 37 190 190 190 190 190 190
 190 93 93 93 93 102 122 148 148 148 148 148 148 148 108 108 227 227 64 64
 64 64 64 190 190 190 190 190 190 190 93 93 93 93 69 69 148 148 148 148
 148 148 148 108 108 227 227 227 64 64 64 64 64 190 190 190 190 190 190 93
 93 93 69 69 69 177 148 177 148 148 148 108 108 108 227 227 227 64 64 64
 64 64 190 190 190 190 190 190 93 93 93 69 69 69 177 177 177 86 86 86
 86 108 227 227 227 227 227 64 64 51 51 51 51 51 133 133 133 119 119 119
 69 69 69 177 177 177 86 86 86 86 21 21 227 227 227 227 64 64 51 51
 51 51 51 133 133 133 133 119 119 69 69 69 177 177 177 86 86 86 86 21
 21 21 227 227 227 51 51 51 51 51 51 51 133 133 133 133 119 69 69 69
 69 69 177 5 5 5 5 21 21 21 21 131 131 131 131 51 51 51 51 51
 51 133 133 133 133 133 234 234 234 69 69 177 5 5 5 5 21 21 21 21
 131 131 131 131 98 98 51 51 51 51 133 133 133 133 234 234 234 234 234 234
 116 116 5 5 5 21 21 21 131 131 131 131 131 98 98 98 168 168 168 30
 30 30 30 234 234 234 234 234 116 116 13 13 5 5 68 68 68 131 131 131
 131 131 98 98 98 168 168 30 30 30 30 30 24 24 24 24 24 116 116 13
 13 13 68 68 68 68 131 131 131 131 178 178 178 178 178 178 30 30 30 30
 30 24 24 24 24 24 116 13 13 13 13 8 68 34 34 34 131 131 131 178
 178 178 178 178 178 30 30 30 30 30 24 24 24 24 24 13 13 13 13 13
 8 8 34 34 34 34 131 178 178 178 178 178 178 178 30 30 30 30 188 188
 24 24 24 24 13 13 13 13 8 8 8 34 34 34 41 41 178 178 178 178
 65 65 65 30 30 30 188 188 188 144 144 24 47 13 13 13 8 8 8 8
 111 111 111 41 41 41 65 65 65 65 65 65 225 225 225 225 66 156 144 144
 47 47 13 13 8 8 8 8 8 111 111 111 204 204 88 65 65 65 65 65
 65 225 225 225 225 156 156 156 156 47 94 8 8 8 8 8 8 8 111 111
 111 88 88 88 88 65 65 65 65 65 225 225 225 156 156 156 156 156 94 94
 94 94 8 8 8 8 111 111 111 88 88 88 88 88 65 65 65 65 65 225
 225 225 225 156 156 156 156 94 94 94 94 94 8 8 198 198 198 198 198 88
 88 88 88 88 247 247 39 39 39 225 225 225 143 143 143 143 94 94 94 94
 94 192 192 198 198 198 198 198 88 88 88 88 88 39 39 39 39 39 39 143
 143 143 143 143 238 238 238 94 94 94 192 192 198 198 198 198 198 92 88 88
 88 39 39 39 39 39 39 39 194 143 143 143 143 238 238 238 238 94 46 46
 198 198 198 198 198 198 92 92 172 88 214 39 39 39 39 39 194 194 194 143
 143 143 238 238 122 122 94 46 46 46 198 198 198 198 198 92 92 167 214 214
 214 31 31 31 31 194 194 194 194 143 143 122 122 122 122 122 46 46 46 46
 198 198 198 3 3 3 167 214 214 214 214 31 31 31 194 194 194 194 194 194
 122 122 122 122 42 46 46 42 42 236 187 3 3 3 3 214 214 214 214 214
 31 31 31 194 194 194 194 194 122 122 122 122 122 122 42 42 42 236 236 187
 3 3 3 3 3 74 74 74 74 74 190 190 190 194 194 194 102 102 102 122
 122 122 122 148 148 236 236 187 187 3 3 3 3 37 37 74 74 74 74 190
 190 190 190 190 190 102 102 102 102 102 122 148 148 148 148 236 187 187 3 3
 3 37 37 37 37 74 74 190 190 190 190 190 190 190 102 102 102 102 102 102
 148 148 148 148 148 148 187 3 3 3 37 37 37 37 37 190 190 190 190 190
 190 190 93 93 93 93 102 102 148 148 148 148 148 148 148 17 108 3 227 37
 37 37 37 37 190 190 190 190 190 190 190 93 93 93 93 93 69 148 148 148
 148 148 148 17 17 17 227 227 227 64 64 64 64 190 190 190 190 190 190 190
 93 93 93 93 69 69 177 148 148 148 17 17 17 17 17 227 227 227 64 64
 64 64 64 190 190 190 190 190 93 93 93 93 93 69 69 177 177 177 17 17
 17 17 17 17 227 227 227 227 64 64 64 51 51 51 190 190 190 119 119 119
 119 119 69 177 177 177 177 17 5 5 5 17 17 227 227 227 227 64 64 51
 51 51 51 12 133 133 133 119 119 119 119 69 69 177 177 177 5 5 5 5
 5 21 21 227 131 227 131 51 51 51 51 51 12 12 133 133 119 119 119 119
 69 69 69 177 5 5 5 5 5 21 21 21 131 131 131 131 131 51 51 51
 51 51 133 133 133 133 119 234 234 234 234 234 177 5 5 5 5 5 21 21
 131 131 131 131 131 98 98 98 51 51 12 12 133 133 234 234 234 234 234 234
 234 116 116 5 5 5 5 21 21 131 131 131 131 131 98 98 98 168 72 30
 30 30 30 30 234 234 234 234 234 116 116 116 5 5 68 68 68 68 131 131
 131 131 98 98 98 98 98 72 30 30 30 30 30 24 24 24 24 116 116 116
 13 13 68 68 68 68 68 68 131 131 131 2 98 98 98 98 30 30 30 30
 30 30 24 24 24 24 24 116 116 13 13 13 68 68 68 68 68 131 131 2
 2 2 178 178 178 30 30 30 30 30 30 24 24 24 24 24 116 13 13 13
 8 8 68 68 68 68 68 131 2 2 2 65 65 65 65 30 30 30 30 30
 144 24 24 47 47 47 13 13 13 8 8 8 68 68 68 41 41 2 2 65
 65 65 65 65 30 30 30 30 30 144 144 144 47 47 47 13 13 8 8 8
 8 68 68 68 41 41 41 65 65 65 65 65 65 225 225 225 225 156 144 144
 144 47 47 47 13 8 8 8 8 8 8 204 204 204 204 204 65 65 65 65
 65 65 65 225 225 225 156 156 144 144 47 47 8 8 8 8 8 8 8 8
 204 204 204 204 204 204 65 65 65 65 65 65 225 225 156 156 156 156 156 47
 228 228 228 8 8 8 8 198 198 198 204 204 204 204 204 65 65 65 247 247
 225 225 225 225 156 156 156 156 228 228 228 228 228 228 8 198 198 198 198 198
 204 204 204 204 247 247 247 247 39 39 39 225 225 143 143 238 238 228 228 228
 228 228 228 198 198 198 198 198 198 198 172 172 172 247 247 247 39 39 39 39
 107 107 143 143 238 238 238 238 228 228 228 228 198 198 198 198 198 198 198 172
 172 172 39 39 39 39 39 39 39 107 143 143 143 238 238 238 238 238 228 42
 42 198 198 198 198 198 198 198 172 172 172 39 39 39 39 39 39 39 194 194
 143 143 238 238 238 238 238 228 42 42 42 198 198 198 198 198 198 167 167 167
 214 214 39 39 39 39 194 194 194 194 143 238 122 122 122 122 122 42 42 42
 42 198 198 198 3 3 167 167 167 214 214 214 223 31 31 194 194 194 194 194
 122 122 122 122 122 42 42 42 42 42 187 187 187 3 3 167 167 167 214 214
 214 223 223 31 194 194 194 194 194 122 122 122 122 122 42 42 42 42 42 187
 187 187 3 3 3 167 74 74 74 74 74 190 190 190 194 194 194 102 102 102
 102 122 122 42 42 42 42 236 187 187 187 3 3 37 37 37 74 74 74 74
 190 190 190 190 190 112 102 102 102 102 102 102 148 148 148 148 148 187 187 187
 3 3 37 37 37 37 74 74 190 190 190 190 190 190 190 102 102 102 102 102
 102 148 148 148 148 148 187 187 187 3 37 37 37 37 37 37 74 190 190 1
 190 190 190 93 93 93 93 102 102 102 148 148 148 148 148 17 17 17 3 37
 37 37 37 37 37 190 190 190 190 190 190 190 93 93 93 93 93 102 148 148
 148 148 17 17 17 17 17 227 227 37 37 37 37 37 190 190 190 190 190 190
 190 93 93 93 93 93 69 177 148 134 134 17 17 17 17 17 227 227 227 44
 44 44 44 44 190 190 190 190 190 93 93 119 93 93 93 69 177 177 134 134
 17 17 17 17 17 227 227 227 44 44 44 44 44 12 12 12 12 12 119 119
 119 119 119 119 69 177 177 134 134 17 17 17 17 17 17 227 227 44 44 44
 44 44 12 12 12 12 12 119 119 119 119 119 119 69 177 177 134 5 5 5
 5 5 17 17 131 131 131 44 44 44 51 12 12 12 12 12 12 119 119 119
 119 234 234 234 177 134 5 5 5 5 5 21 21 131 131 131 131 165 165 51
 12 12 12 12 12 12 121 119 234 234 234 234 234 234 116 5 5 5 5 5
 21 131 131 131 131 131 98 98 98 12 12 12 12 12 121 121 234 234 234 234
 234 234 116 116 5 5 5 5 5 21 131 131 131 131 131 98 98 98 72 72
 72 30 30 30 30 234 234 234 234 234 116 116 116 116 5 68 68 68 68 131
 131 131 131 98 98 98 98 72 72 30 30 30 30 30 24 24 24 234 116 116
 116 116 116 68 68 68 68 68 68 131 131 131 2 98 98 98 72 72 30 30
 30 30 30 24 24 24 24 116 116 116 13 13 8 68 68 68 68 68 131 131
 2 2 2 98 98 72 72 30 30 30 30 30 24 24 24 24 116 116 116 13
 13 8 8 68 68 68 68 41 41 2 2 2 65 65 65 65 30 30 30 30
 30 144 144 47 47 47 47 13 13 8 8 8 68 68 68 41 41 41 41 41
 65 65 65 65 65 30 30 30 30 144 144 144 144 47 47 47 13 8 8 8
 8 8 68 68 41 41 41 41 41 65 65 65 65 65 65 225 225 225 144 144
 144 144 47 47 47 13 8 8 8 8 8 8 204 204 204 204 204 204 65 65
 65 65 65 83 83 83 83 83 156 144 144 47 228 228 228 228 8 8 8 8
 204 204 204 204 204 204 204 65 65 65 65 65 83 83 83 83 83 156 156 228
 228 228 228 228 228 228 228 8 198 198 204 204 204 204 204 204 65 247 247 247
 247 83 83 83 83 83 156 156 228 228 228 228 228 228 228 228 198 198 198 198
 204 204 204 204 204 247 247 247 247 247 39 107 107 107 107 143 238 238 228 228
 228 228 228 228 228 198 198 198 198 198 172 172 172 172 247 247 247 247 39 39
 107 107 107 107 143 238 238 238 238 228 228 228 228 198 198 198 198 198 198 172
 172 172 172 247 247 247 39 39 39 107 107 107 107 143 238 238 238 238 228 228
 228 228 198 198 198 198 198 198 172 172 172 172 167 39 39 39 39 39 39 107
 107 107 143 238 238 238 238 238 228 42 42 42 198 198 198 198 198 172 167 167
 167 167 214 223 39 39 39 39 107 107 107 143 238 238 238 122 122 228 42 42
 42 42 198 198 198 126 167 167 167 167 167 214 223 223 223 39 194 194 194 194
 194 122 122 122 122 122 42 42 42 42 42 187 187 187 126 126 167 167 167 167
 214 223 223 223 223 194 194 194 112 112 122 122 122 122 122 42 42 42 42 42
 187 187 187 126 126 167 167 167 74 74 74 223 223 190 190 190 112 112 102 102
 102 102 122 122 42 42 42 42 187 187 187 187 126 126 37 37 37 74 74 74
 74 190 190 190 190 190 112 112 102 102 102 102 102 148 148 148 148 187 187 187
 187 126 126 37 37 37 37 74 74 190 190 190 190 190 190 112 102 102 102 102
 102 102 148 148 148 148 148 187 187 187 126 37 37 37 37 37 37 74 190 190
 190 190 190 190 93 93 93 93 102 102 102 148 148 148 17 17 17 17 17 17
 37 37 37 37 37 37 190 190 190 190 190 190 190 93 93 93 93 93 102 102
 148 134 134 17 17 17 17 17 17 227 37 44 44 37 37 190 190 190 190 190
 190 190 93 93 93 93 93 93 134 134 134 134 17 17 17 17 17 17 227 44
 44 44 44 44 44 190 190 190 190 190 119 119 119 119 93 93 69 177 134 134
 134 17 17 17 17 17 17 227 44 44 44 44 44 44 12 12 12 12 12 119
 119 119 119 119 119 69 134 134 134 134 17 17 17 17 17 17 44 44 44 44
 44 44 44 12 12 12 12 12 12 119 119 119 119 119 69 177 134 134 17 17
 5 5 17 17 17 131 44 44 44 44 44 44 12 12 12 12 12 121 119 119
 119 119 234 234 134 134 134 5 5 5 5 5 21 131 131 131 165 165 165 165
 165 12 12 12 12 12 121 121 121 234 234 234 234 116 116 116 5 5 5 5
 5 21 131 131 131 165 165 165 98 98 72 12 12 12 12 121 121 121 234 234
 234 234 116 116 116 5 5 5 5 5 131 131 131 131 131 165 98 98 72 72
 72 72 12 30 121 121 121 234 234 234 116 116 116 116 116 5 68 68 68 68
 131 131 131 131 98 98 98 72 72 72 72 30 30 30 207 207 234 234 116 116
 116 116 116 116 116 68 68 68 68 68 131 131 219 219 98 98 72 72 72 30
 30 30 30 30 207 24 24 116 116 116 116 116 116 8 68 68 68 68 68 41
 41 219 219 219 219 72 72 72 30 30 30 30 30 207 24 24 24 116 116 116
 13 8 8 68 68 68 68 41 41 41 41 219 219 65 65 65 65 30 30 30
 30 30 144 144 144 47 47 116 116 13 8 8 8 68 68 68 41 41 41 41
 41 65 65 65 65 65 30 30 30 30 207 144 144 144 47 47 47 13 8 8
 8 8 8 68 68 41 41 41 41 41 65 65 65 65 65 65 83 83 83 207
 144 144 144 47 47 47 13 228 8 8 8 8 6 6 6 204 204 204 204 65
 65 65 65 65 110 83 83 83 83 83 144 228 228 228 228 228 228 228 8 8
 8 6 6 204 204 204 204 204 65 65 65 65 110 110 83 83 83 83 83 228
 228 228 228 228 228 228 228 228 228 198 198 204 204 204 204 204 204 204 247 247
 247 247 110 83 83 83 83 83 228 228 228 228 228 228 228 228 228 198 198 198
 198 172 204 204 204 172 172 247 247 247 247 247 107 107 107 107 107 228 228 228
 228 228 228 228 228 228 198 198 198 198 172 172 172 172 172 172 247 247 247 247
 39 107 107 107 107 107 238 238 238 228 228 228 228 228 228 198 198 198 198 172
 172 172 172 172 172 247 247 247 39 39 107 107 107 107 107 238 238 238 238 228
 228 228 228 228 198 198 198 198 172 172 172 172 172 172 247 247 39 39 39 107
 107 107 107 107 238 238 238 238 228 228 42 42 240 157 157 157 157 172 172 172
 172 167 167 167 223 223 223 39 107 107 107 107 107 238 238 238 238 228 228 42
 42 240 240 240 157 157 126 172 167 167 167 167 167 223 223 223 223 194 194 107
 107 107 122 122 122 122 122 42 42 42 240 240 240 187 126 126 126 167 167 167
 167 223 223 223 223 223 223 112 112 112 112 112 122 122 122 122 42 42 42 42
 240 240 187 126 126 126 167 167 167 167 128 223 223 223 223 190 112 112 112 112
 112 179 179 179 179 42 42 42 42 187 187 187 126 126 126 126 167 167 128 128
 128 223 190 190 190 190 112 112 112 112 179 102 102 102 148 148 148 148 187 187
 187 126 126 126 37 37 37 37 128 128 190 190 190 190 190 112 112 112 112 179
 102 102 102 148 148 148 17 17 17 187 126 126 126 37 37 37 37 37 128 190
 190 190 190 190 112 112 93 93 93 102 102 102 148 148 17 17 17 17 17 17
 126 126 37 37 37 37 37 190 190 190 190 190 190 190 93 93 93 93 93 102
 134 134 134 134 17 17 17 17 17 17 44 44 44 44 44 44 44 190 190 190
 190 190 190 93 93 93 93 93 93 134 134 134 134 17 17 17 17 17 17 17
 44 44 44 44 44 44 190 190 190 190 190 190 119 119 119 93 93 93 134 134
 134 134 17 17 17 17 17 17 17 44 44 44 44 44 44 12 12 12 12 12
 12 119 119 119 119 119 134 134 134 134 134 17 17 17 17 17 17 44 44 44
 44 44 44 44 12 12 12 12 12 12 119 119 119 119 119 134 134 134 134 17
 17 17 17 17 17 17 44 44 44 44 44 44 44 12 12 12 12 12 121 121
 121 121 119 234 116 134 134 17 17 17 17 17 17 17 9 131 165 165 165 165
 165 165 12 12 12 12 12 121 121 121 121 234 234 116 116 116 116 5 5 5
 5 5 9 131 131 165 165 165 165 165 72 72 12 12 12 121 121 121 121 121
 234 234 116 116 116 116 116 5 5 5 5 131 131 131 131 165 165 165 165 72
 72 72 72 12 121 121 121 121 121 234 116 116 116 116 116 116 116 67 68 68
 68 131 131 131 131 165 165 72 72 72 72 72 30 30 207 207 207 207 116 116
 116 116 116 116 116 67 67 68 68 68 68 131 219 219 219 219 72 72 72 72
 72 30 30 207 207 207 207 207 116 116 116 116 116 116 67 67 68 68 68 6
 41 41 219 219 219 219 72 14 72 30 30 30 207 207 207 207 207 116 116 116
 116 116 116 67 67 68 68 6 6 41 41 41 219 219 219 65 65 65 30 30
 30 207 207 207 207 207 47 116 116 116 13 8 8 67 68 6 6 6 41 41
 41 41 219 65 65 65 65 30 30 30 207 207 207 144 144 47 47 116 116 8
 8 8 8 6 6 6 6 41 41 41 41 65 65 65 65 65 110 83 83 83
 207 207 144 144 47 47 47 13 228 228 8 8 6 6 6 6 6 204 204 204
 65 65 65 65 110 110 110 83 83 83 83 83 228 228 228 228 228 228 228 228
 8 6 6 6 6 204 204 204 204 204 65 65 125 125 110 125 83 83 83 83
 228 228 228 228 228 228 228 228 228 228 6 6 6 204 204 204 204 204 204 247
 247 247 125 110 125 83 83 83 83 228 228 228 228 228 228 228 228 228 228 198
 198 172 172 172 172 172 172 172 247 247 247 247 110 110 107 107 107 107 228 228
 228 228 228 228 228 228 228 198 198 198 172 172 172 172 172 172 172 247 247 247
 247 107 107 107 107 107 107 238 238 238 228 228 228 228 228 228 157 157 157 172
 22 22 172 172 172 172 247 247 247 247 107 107 107 107 107 107 238 238 238 228
 228 228 228 228 228 157 157 157 157 22 172 172 172 172 172 172 247 39 39 107
 107 107 107 107 107 238 238 238 238 228 228 228 240 240 157 157 157 157 172 172
 172 172 172 167 223 223 223 223 107 107 107 107 107 107 238 238 238 228 228 228
 42 240 240 240 157 157 157 106 172 172 167 167 167 223 223 223 223 223 107 107
 107 112 112 189 238 122 122 228 228 42 240 240 240 240 240 126 126 172 167 167
 167 167 128 223 223 223 223 223 112 112 112 112 189 179 179 179 179 179 42 240
 240 240 240 240 126 126 126 167 167 167 128 128 128 223 223 223 223 112 112 112
 112 189 179 179 179 179 179 42 42 240 240 240 240 126 126 126 126 167 128 128
 128 128 128 223 190 190 112 112 112 112 112 179 179 179 179 179 148 148 240 240
 187 187 126 126 126 37 37 128 128 128 128 128 190 190 190 112 112 112 112 112
 179 179 179 179 179 17 17 17 17 17 17 126 126 126 37 37 37 128 128 128
 128 190 190 190 112 112 112 112 112 179 179 179 179 179 17 17 17 17 17 17
 17 126 126 37 37 37 37 37 128 190 190 190 190 190 112 93 93 93 93 179
 179 179 134 134 17 17 17 17 17 17 17 44 44 44 44 44 44 44 190 190
 190 190 190 190 93 93 93 93 93 93 134 134 134 134 17 17 17 17 17 17
 44 44 44 44 44 44 44 190 12 12 12 12 12 119 119 119 93 93 134 134
 134 134 134 17 17 17 17 17 17 44 44 44 44 44 44 44 12 12 12 12
 12 12 121 119 119 119 119 134 134 134 134 134 17 17 17 17 17 9 9 44
 44 44 44 44 44 12 12 12 12 12 121 121 121 119 119 119 134 134 134 134
 17 17 17 17 17 9 9 9 44 44 44 44 44 44 12 12 12 12 12 121
 121 121 121 121 234 116 134 134 17 17 17 17 17 17 9 9 9 165 165 165
 165 165 165 12 12 12 12 121 121 121 121 121 121 234 116 116 116 116 163 163
 163 163 9 9 9 9 165 165 165 165 165 72 72 12 12 12 121 121 121 121
 121 116 116 116 116 116 116 163 163 163 67 9 9 9 131 165 165 165 165 72
 72 72 72 72 12 121 121 121 121 121 116 116 116 116 116 116 116 67 67 67
 67 6 131 131 165 165 165 165 72 72 72 72 72 207 207 207 207 207 207 116
 116 116 116 116 116 67 67 67 67 67 6 6 219 219 219 219 219 72 72 72
 72 72 207 207 207 207 207 207 207 116 116 116 116 116 67 67 67 67 67 6
 6 6 41 219 219 219 219 14 14 14 14 207 207 207 207 207 207 207 116 116
 116 116 116 67 67 67 67 6 6 6 6 41 41 219 219 219 14 14 14 30
 207 207 207 207 207 207 207 116 116 116 116 116 67 67 67 67 6 6 6 6
 41 41 41 219 65 65 65 110 110 110 207 207 207 207 207 207 47 116 116 116
 8 67 67 67 6 6 6 6 6 41 41 41 65 65 65 65 110 110 110 83
 83 207 207 207 207 47 47 116 116 228 228 228 6 6 6 6 6 6 6 204
 204 65 65 125 125 125 110 125 125 83 83 83 83 228 228 228 228 228 228 228
 228 6 6 6 6 6 204 204 204 204 204 125 125 125 125 110 125 125 83 83
 83 228 228 228 228 228 228 228 228 228 228 6 6 6 172 172 172 172 172 172
 247 247 125 125 110 125 125 83 83 83 228 228 228 228 220 228 228 228 228 228
 157 172 172 172 172 172 172 172 172 247 247 247 110 110 110 125 107 107 228 228
 228 228 228 220 228 228 228 228 157 157 172 172 172 172 172 172 172 172 247 247
 244 244 110 107 107 107 107 238 238 238 228 228 228 228 228 228 228 157 157 157
 106 22 22 172 172 172 172 244 244 244 244 244 107 107 107 107 107 238 238 238
 228 228 228 228 228 228 157 157 157 157 22 172 172 172 172 172 244 244 244 244
 244 107 107 107 107 107 238 238 238 228 228 228 228 240 240 157 157 157 157 106
 172 172 172 172 172 151 151 151 244 244 107 107 107 189 189 189 238 238 228 228
 228 240 240 240 240 157 157 157 106 106 172 172 167 167 151 151 151 151 151 107
 107 189 189 189 189 189 179 228 228 228 240 240 240 240 240 240 106 106 106 167
 167 167 128 128 128 151 151 151 112 112 112 112 189 189 179 179 179 179 179 232
 240 240 240 240 240 126 126 106 167 167 128 128 128 128 128 151 151 112 112 112
 112 189 189 179 179 179 179 179 232 232 240 240 240 240 126 126 126 126 167 128
 128 128 128 128 151 190 112 112 112 112 112 189 179 179 179 179 179 232 232 240
 240 240 240 126 126 126 115 128 128 128 128 128 128 190 190 190 112 112 112 112
 112 179 179 179 179 179 17 17 17 17 17 17 126 126 126 115 128 128 128 128
 128 128 190 190 190 112 112 112 112 112 179 179 179 179 179 17 17 17 17 17
 17 17 126 115 115 128 128 128 128 128 128 190 190 190 112 112 112 112 112 179
 179 179 179 179 17 17 17 17 17 17 17 17 44 44 44 44 44 44 128 190
 190 190 190 190 71 71 71 209 93 93 179 134 134 134 17 17 17 17 17 17
 9 9 44 44 44 44 44 44 216 216 216 216 216 209 209 209 209 209 49 134
 134 134 134 17 17 17 17 17 17 9 9 44 44 44 44 44 216 216 216 216
 216 216 209 209 209 209 49 49 49 134 134 134 17 17 17 17 17 9 9 9
 9 44 44 44 44 216 216 216 216 216 216 209 209 209 209 49 49 49 134 134
 17 17 17 17 17 9 9 9 9 9 44 44 44 44 216 216 216 216 216 216