# vtk DataFile Version 2.0
Data set from ImportExport Version 6.5.171.b0b162591
ASCII

DATASET RECTILINEAR_GRID
DIMENSIONS 30 30 30
X_COORDINATES 30 float
-1.250000 1.250000 3.750000 6.250000 8.750000 11.250000 13.750000 16.250000 18.750000 21.250000 23.750000 26.250000 28.750000 31.250000 33.750000 36.250000 38.750000 41.250000 43.750000 46.250000 48.750000 
51.250000 53.750000 56.250000 58.750000 61.250000 63.750000 66.250000 68.750000 71.250000 
Y_COORDINATES 30 float
-1.250000 1.250000 3.750000 6.250000 8.750000 11.250000 13.750000 16.250000 18.750000 21.250000 23.750000 26.250000 28.750000 31.250000 33.750000 36.250000 38.750000 41.250000 43.750000 46.250000 48.750000 
51.250000 53.750000 56.250000 58.750000 61.250000 63.750000 66.250000 68.750000 71.250000 
Z_COORDINATES 30 float
-1.250000 1.250000 3.750000 6.250000 8.750000 11.250000 13.750000 16.250000 18.750000 21.250000 23.750000 26.250000 28.750000 31.250000 33.750000 36.250000 38.750000 41.250000 43.750000 46.250000 48.750000 
51.250000 53.750000 56.250000 58.750000 61.250000 63.750000 66.250000 68.750000 71.250000 
CELL_DATA 24389
SCALARS FeatureIds int 1
LOOKUP_TABLE default
 49 49 59 59 59 59 59 189 61 61 61 61 61 175 175 175 175 175 175 175
 232 232 232 232 232 93 93 93 93 127 127 59 59 59 189 189 189 61 61 61
 61 61 175 175 175 175 175 175 175 232 232 232 232 232 93 93 93 127 127 127
 127 59 189 189 189 189 61 61 61 61 69 69 175 175 175 175 175 175 232 232
 232 232 232 93 93 127 127 127 127 127 189 189 189 189 189 61 61 61 61 69
 69 69 69 175 175 175 175 232 232 232 232 37 37 37 127 127 127 127 127 189
 189 189 189 189 189 61 61 61 69 69 69 69 69 69 128 175 202 202 202 37
 37 37 37 37 127 127 127 127 189 189 189 189 189 189 61 61 69 69 69 69
 69 69 69 69 69 202 202 202 37 37 37 37 228 127 127 127 127 189 189 189
 189 189 189 115 115 69 69 69 69 69 69 69 69 69 202 202 202 228 228 228
 228 228 228 127 127 226 226 86 86 86 86 86 115 115 223 223 223 69 69 69
 69 69 69 202 202 202 228 228 228 228 228 228 127 226 226 226 86 86 86 86
 86 115 115 223 223 223 223 180 180 180 180 180 137 137 137 228 228 228 228 228
 228 226 226 226 226 226 226 226 226 226 115 115 223 223 223 223 180 177 177 177
 177 137 137 137 32 32 32 32 32 32 50 226 226 226 226 226 226 226 226 115
 115 223 223 223 223 177 177 177 177 177 137 137 32 32 163 163 163 32 32 50
 50 226 226 86 86 226 226 226 115 115 223 223 223 177 177 177 177 177 113 113
 113 32 32 163 163 163 32 32 50 50 50 226 86 86 226 182 182 115 115 115
 223 177 177 177 177 177 177 113 113 113 32 32 163 163 50 50 50 50 50 50
 121 182 182 182 182 182 182 115 115 223 201 201 201 201 177 177 113 113 100 32
 32 32 32 50 50 50 50 50 121 121 182 182 182 182 182 182 234 234 234 201
 201 201 201 201 7 162 100 100 100 32 32 32 50 50 50 50 121 121 121 121
 182 182 182 182 182 234 234 234 234 201 201 201 7 7 162 162 100 100 100 8
 8 8 8 8 8 121 121 121 121 121 182 182 182 182 234 234 234 234 156 156
 156 7 7 7 162 162 195 195 8 8 8 8 8 8 121 121 121 121 121 182
 182 191 191 234 234 234 191 156 156 156 7 7 7 7 195 195 195 8 8 8
 8 8 8 121 121 121 121 121 121 191 191 191 191 191 191 191 191 156 7 7
 7 7 7 7 75 75 8 8 8 8 8 8 121 121 121 121 121 121 191 191
 191 191 191 191 191 191 156 7 7 7 7 7 75 75 75 75 8 8 8 8
 203 134 134 134 134 134 134 191 191 191 191 191 191 169 169 169 169 7 7 75
 75 75 75 75 75 203 203 203 203 203 203 134 134 134 134 134 191 191 191 191
 191 169 169 169 169 169 75 75 75 75 75 75 75 123 203 203 203 203 203 203
 134 134 134 134 208 208 208 240 240 240 169 169 169 169 169 75 75 75 75 75
 75 123 123 123 203 203 203 203 203 49 134 208 208 208 208 208 208 240 240 240
 169 169 169 144 144 75 75 75 75 123 123 123 123 203 203 203 49 49 49 49
 208 208 208 208 208 208 208 240 240 169 144 144 144 144 132 2 2 2 2 123
 123 123 123 203 203 49 49 49 49 208 208 208 208 208 208 208 208 240 144 144
 144 144 144 132 2 2 2 2 123 123 123 123 203 49 49 49 49 49 49 208
 208 208 208 208 208 208 208 144 144 144 144 144 131 131 131 2 2 2 123 123
 225 49 49 49 49 49 49 49 208 208 208 208 208 208 208 208 144 144 175 175
 175 131 131 131 2 2 2 123 225 49 49 49 49 49 49 59 59 59 208 208
 208 208 208 208 208 175 175 175 175 175 131 131 131 131 2 2 225 225 49 49
 49 93 49 59 59 189 189 189 189 61 61 61 61 61 175 175 175 175 175 175
 175 232 232 232 232 232 93 93 93 93 127 127 127 189 189 189 189 189 61 61
 61 61 61 61 175 175 175 175 175 175 232 232 232 232 232 93 93 93 93 127
 127 127 189 189 189 189 189 61 61 61 61 61 69 175 175 175 175 175 175 232
 232 232 232 232 93 93 93 93 127 41 127 189 189 189 189 189 61 61 61 61
 69 69 69 69 175 175 175 175 232 232 232 232 37 37 37 93 127 127 127 127
 189 189 189 189 189 61 61 61 61 69 69 69 69 69 69 175 175 232 232 232
 37 37 37 37 37 127 127 127 127 189 189 189 189 189 61 61 61 69 69 69
 69 69 69 69 69 69 202 202 202 37 37 37 37 228 228 127 127 127 189 189
 189 189 189 42 115 115 172 172 69 69 69 69 69 69 69 202 202 202 228 228
 228 228 228 228 127 127 127 86 86 86 86 86 42 115 115 223 172 172 172 69
 69 69 69 69 137 137 137 228 228 228 228 228 228 127 226 226 226 226 86 86
 226 42 115 115 223 223 223 223 223 177 177 177 177 137 137 137 32 32 228 228
 228 228 226 226 226 226 226 86 226 226 42 115 115 115 223 223 223 177 177 177
 177 177 137 137 137 32 32 32 32 32 32 50 226 226 226 86 86 226 226 42
 115 115 115 223 223 223 177 177 177 177 177 137 137 32 32 163 163 32 32 32
 50 50 226 226 86 86 86 226 42 115 115 115 223 223 177 177 177 177 177 113
 137 137 32 32 163 163 163 32 32 50 50 50 226 86 86 86 182 182 115 115
 115 115 177 177 177 177 177 177 113 113 32 32 32 163 163 50 50 50 50 50
 50 121 182 182 182 182 182 115 115 115 120 177 177 177 177 177 177 45 45 45
 45 32 32 32 50 50 50 50 50 121 121 182 182 182 182 182 182 234 234 234
 120 201 201 201 177 7 45 45 45 45 32 32 32 50 50 50 50 121 121 121
 121 182 182 182 182 182 234 234 234 234 201 201 7 7 7 7 45 45 45 45
 32 8 8 8 8 8 121 121 121 121 121 182 182 182 234 234 234 234 234 234
 156 7 7 7 7 7 45 45 45 8 8 8 8 8 8 121 121 121 121 121
 182 182 182 191 234 234 234 191 191 156 7 7 7 7 7 7 45 75 8 8
 8 8 8 8 121 121 121 121 121 121 182 191 191 191 191 191 191 191 156 7
 7 7 7 7 7 75 75 75 8 8 8 8 8 121 121 121 121 121 121 191
 191 191 191 191 191 191 169 169 7 7 7 7 7 75 75 75 75 8 8 8
 8 203 121 134 134 134 121 121 191 191 191 191 191 191 169 169 169 7 7 7
 75 75 75 75 75 75 203 203 203 203 203 203 134 134 134 121 125 191 191 191
 191 191 169 169 169 169 169 7 75 75 75 75 75 75 75 203 203 203 203 203
 203 134 134 125 125 125 208 191 240 240 240 169 169 169 169 169 75 75 75 75
 75 75 75 75 123 203 203 203 203 49 49 49 125 125 125 208 208 208 240 240
 240 169 169 169 169 132 132 75 75 75 75 75 123 123 203 203 203 49 49 49
 49 125 125 125 208 208 208 208 240 240 192 192 192 144 132 132 132 132 75 75
 123 123 123 123 203 49 49 49 49 49 125 125 125 208 208 208 208 208 192 192
 192 192 154 132 132 132 132 132 2 123 123 123 225 49 49 49 49 49 49 49
 125 125 125 208 208 208 208 192 192 192 192 154 154 131 131 131 131 2 2 123
 225 225 49 49 49 49 49 49 49 125 125 125 208 208 208 208 192 192 192 154
 154 154 131 131 131 131 2 2 225 225 225 49 49 49 49 49 49 59 125 125
 125 208 208 208 208 192 192 175 175 175 175 131 131 131 131 131 131 225 225 93
 93 49 93 49 109 109 109 189 189 189 61 61 61 61 61 175 175 175 175 175
 175 175 232 232 232 232 93 93 93 93 93 93 127 127 189 189 189 189 189 61
 61 61 61 61 61 175 175 175 175 175 175 232 232 232 232 232 93 93 93 93
 127 127 127 189 189 189 189 189 61 61 61 61 61 69 175 175 175 175 175 232
 232 232 232 232 232 93 93 93 93 127 127 127 189 189 189 189 189 61 61 61
 61 61 69 69 69 175 175 175 232 232 232 232 232 37 93 93 93 127 127 127
 127 189 189 189 189 189 61 61 61 61 69 69 69 69 69 69 175 232 232 232
 232 37 37 37 37 37 127 127 127 127 189 189 189 189 189 61 61 61 172 172
 69 69 69 69 69 69 69 232 232 37 37 37 37 228 228 228 127 127 127 189
 189 189 189 42 42 115 172 172 172 172 69 69 69 69 69 69 137 137 228 228
 228 228 228 228 228 127 127 226 226 226 86 42 42 42 115 115 172 172 172 172
 172 69 69 69 137 137 137 137 228 228 228 228 228 228 127 226 226 226 226 226
 226 42 42 115 115 115 223 172 172 172 177 177 177 137 137 137 137 137 32 228
 228 228 228 226 226 226 226 226 226 226 42 42 115 115 115 223 223 223 177 177
 177 177 137 137 137 137 32 32 32 32 32 32 50 86 86 86 86 86 42 42
 42 115 115 115 115 223 223 177 177 177 177 137 137 137 137 32 32 32 32 32
 32 50 50 86 86 86 86 42 42 42 115 115 115 115 223 177 177 177 177 177
 137 137 137 32 32 32 32 32 32 32 50 50 239 86 86 86 42 42 42 115
 115 115 115 120 177 177 177 177 177 177 137 137 32 32 32 32 32 32 50 50
 50 50 121 114 114 182 182 182 115 115 120 120 120 120 177 177 177 177 45 45
 45 45 32 32 32 50 50 50 50 50 121 121 121 182 182 182 182 182 234 120
 120 120 120 177 177 177 45 45 45 45 45 45 32 32 50 50 50 50 121 121
 121 121 182 182 182 182 182 234 234 234 120 120 120 7 7 7 45 45 45 45
 45 32 8 8 8 8 8 121 121 121 121 121 182 182 182 234 234 234 234 234
 165 165 7 7 7 7 45 45 45 45 45 8 8 8 8 8 121 121 121 121
 121 182 182 182 191 234 234 234 191 165 165 7 7 7 7 7 45 45 45 8
 8 8 8 8 8 121 121 121 121 121 121 182 191 191 191 191 191 191 165 165
 7 7 7 7 7 7 75 75 8 8 8 8 8 8 121 121 121 121 121 121
 191 191 191 191 191 191 191 165 165 7 7 7 7 7 75 75 75 75 8 8
 8 8 231 121 121 121 121 121 191 191 191 191 191 191 191 169 169 169 7 7
 7 7 75 75 75 75 75 231 231 231 231 231 82 121 121 121 125 125 191 191
 191 191 191 169 169 169 169 169 7 75 75 75 75 75 75 75 75 231 231 231
 82 82 82 125 125 125 125 125 125 191 240 240 169 169 169 169 169 75 75 75
 75 75 75 75 75 75 231 231 231 82 49 82 125 125 125 125 125 125 208 240
 240 240 169 192 192 132 132 132 132 75 75 75 75 75 75 203 203 82 49 49
 49 125 125 125 125 125 125 208 208 240 192 192 192 192 192 132 132 132 132 132
 75 75 75 225 225 225 49 49 49 49 109 125 125 125 125 125 208 208 208 192
 192 192 192 154 132 132 132 132 132 132 225 225 225 225 225 49 49 49 49 109
 109 125 125 125 125 208 208 208 192 192 192 192 154 154 132 132 132 132 2 225
 225 225 225 225 49 49 49 49 109 109 125 125 125 125 208 208 208 192 192 192
 154 154 154 131 131 131 131 131 225 225 225 225 225 49 49 49 49 109 109 125
 125 125 125 208 208 208 192 192 192 175 154 154 131 131 131 131 131 225 225 225
 93 93 93 93 109 109 109 109 109 109 61 61 61 61 61 61 85 85 85 175
 175 175 175 232 232 232 225 225 225 93 93 93 93 127 109 109 189 189 189 61
 61 61 61 61 61 85 85 85 175 175 175 175 232 232 232 204 204 93 93 93
 93 93 127 127 189 189 189 189 189 61 61 61 61 61 85 85 85 175 175 175
 175 232 232 204 204 204 93 93 93 93 127 127 127 189 189 189 189 189 61 61
 61 61 61 69 69 69 175 175 175 175 232 232 204 204 204 204 93 93 93 127
 127 127 189 189 189 189 189 61 61 61 61 69 69 69 69 69 69 175 175 232
 232 204 204 204 37 37 93 127 127 127 127 189 189 189 189 189 61 61 61 172
 172 172 69 69 69 69 69 69 232 232 204 204 228 228 228 228 228 127 127 127
 189 189 189 189 42 42 115 172 172 172 172 172 69 69 69 69 137 137 137 137
 228 228 228 228 228 228 20 20 20 226 226 86 42 42 42 115 115 172 172 172
 172 172 69 69 69 137 137 137 137 137 228 228 228 228 228 20 20 20 226 226
 226 42 42 42 115 115 115 172 172 172 172 152 177 137 137 137 137 137 137 32
 32 32 32 32 20 20 226 226 226 42 42 42 42 115 115 115 115 172 172 152
 152 177 177 137 137 137 137 32 32 32 32 32 32 20 86 86 86 86 42 42
 42 42 115 115 115 115 223 223 177 177 177 177 137 137 137 137 32 32 32 32
 32 32 50 239 239 239 86 42 42 42 42 115 115 115 115 120 177 177 177 177
 177 137 137 137 32 32 32 32 32 32 32 50 239 239 239 239 114 42 42 42
 115 115 115 120 120 120 177 177 177 30 30 30 30 32 32 32 32 32 32 32
 50 50 239 239 114 114 114 182 182 115 115 120 120 120 120 120 177 30 30 30
 45 45 45 32 32 32 32 32 32 50 50 239 114 114 114 114 182 182 182 120
 120 120 120 120 120 120 30 30 45 45 45 45 45 32 32 32 50 50 50 121
 121 114 114 114 114 182 182 182 234 120 120 120 120 120 120 30 30 45 45 45
 45 45 32 32 8 8 8 8 121 121 121 121 114 114 182 182 234 234 234 62
 62 62 62 62 7 135 45 45 45 45 45 45 8 8 8 8 8 121 121 121
 121 121 114 182 182 191 234 234 62 62 165 165 165 7 135 135 45 45 45 45
 45 8 8 8 8 8 121 121 121 121 121 121 182 191 191 191 191 191 165 165
 165 165 7 7 7 7 7 75 45 45 231 231 231 8 231 231 121 121 121 121
 121 191 191 191 191 191 191 165 165 165 165 7 7 7 243 75 75 75 75 231
 231 231 231 231 231 121 121 121 121 191 191 191 191 191 191 191 169 169 169 7
 7 243 243 75 75 75 75 75 231 231 231 231 231 82 82 121 121 125 125 125
 191 191 191 191 191 169 169 169 169 7 75 75 75 75 75 75 75 231 231 231
 231 82 82 82 82 125 125 125 125 125 191 191 240 169 169 169 169 169 132 132
 75 75 75 75 75 75 75 231 231 231 82 82 82 82 125 125 125 125 125 125
 240 240 192 192 192 192 132 132 132 132 132 75 75 75 75 225 82 82 82 82
 82 109 109 125 125 125 125 125 125 208 192 192 192 192 192 192 132 132 132 132
 132 132 132 225 225 225 225 82 49 49 109 109 109 125 125 125 125 125 208 192
 192 192 192 192 154 132 132 132 132 132 132 225 225 225 225 225 225 49 49 109
 109 109 125 125 125 125 125 208 192 192 192 192 192 154 154 132 132 132 132 132
 225 225 225 225 225 225 49 49 109 109 109 109 125 125 125 125 208 192 192 192
 192 154 154 154 154 132 132 132 132 225 225 225 225 225 225 49 109 109 109 109
 109 125 125 125 125 208 192 192 192 192 154 154 154 154 132 132 132 225 225 225
 225 225 93 93 93 109 109 109 109 109 109 109 61 61 61 61 85 85 85 85
 85 154 154 175 232 232 225 225 225 225 93 93 93 93 109 109 109 109 109 109
 61 61 61 61 61 85 85 85 85 85 175 175 175 232 204 204 204 204 93 93
 93 93 93 127 127 109 189 189 189 61 61 61 61 61 85 85 85 85 85 175
 175 175 232 204 204 204 204 204 93 93 93 127 127 127 189 189 189 189 153 61
 61 61 61 61 85 85 85 85 175 175 175 204 204 204 204 204 204 93 93 93
 127 127 127 189 189 189 189 153 153 153 61 172 172 69 69 69 69 69 175 204
 204 204 204 204 204 204 93 93 93 20 20 20 189 189 189 153 153 153 153 153
 172 172 172 172 69 69 69 69 158 158 204 204 204 204 204 228 228 228 20 20
 20 20 189 189 153 153 153 153 153 172 172 172 172 172 69 69 69 137 137 137
 89 89 89 228 228 228 228 20 20 20 20 226 42 42 42 42 115 115 172 172
 172 172 172 152 152 51 137 137 137 137 89 228 228 228 228 20 20 20 20 20
 226 42 42 42 42 115 115 115 172 172 172 152 152 152 51 137 137 137 137 32
 32 32 32 32 32 20 20 20 20 226 42 42 42 42 115 115 115 115 172 152
 152 152 152 51 137 137 137 137 32 32 32 32 32 32 20 239 239 239 86 42
 42 42 42 115 115 115 115 115 152 152 152 51 51 51 137 137 137 32 32 32
 32 32 32 239 239 239 239 239 42 42 42 115 115 115 115 120 120 120 152 51
 51 51 30 30 137 32 32 32 32 32 32 32 239 239 239 239 239 239 42 42
 115 115 115 120 120 120 120 120 51 51 30 30 30 30 32 32 32 32 32 32
 32 239 239 239 239 114 114 114 114 114 115 115 120 120 120 120 120 51 30 30
 30 30 45 32 32 32 32 32 32 32 239 239 239 114 114 114 114 114 114 114
 120 120 120 120 120 120 120 30 30 30 45 45 45 32 32 32 32 32 32 52
 52 52 114 114 114 114 114 114 114 120 120 120 120 120 120 120 30 30 45 45
 45 45 45 32 32 32 32 32 8 52 52 114 114 114 114 114 114 87 234 62
 62 62 62 62 62 135 135 135 45 45 45 45 45 8 8 8 8 8 121 121
 114 114 114 114 114 87 87 87 62 62 62 165 165 165 135 135 135 135 45 45
 45 45 231 231 231 231 231 121 121 121 121 121 114 114 87 191 191 62 62 62
 165 165 165 135 135 243 243 243 45 45 231 231 231 231 231 231 231 121 121 121
 121 114 191 191 191 191 191 62 165 165 165 165 243 243 243 243 243 75 75 231
 231 231 231 231 231 82 82 121 121 121 125 191 191 191 191 191 191 165 165 165
 243 243 243 243 243 243 75 75 231 231 231 231 231 82 82 82 82 121 125 125
 125 125 191 191 191 191 169 169 169 243 243 243 243 243 75 75 75 75 231 231
 231 231 82 82 82 82 125 125 125 125 125 125 191 240 169 169 169 122 122 132
 132 132 132 75 75 75 75 231 231 231 82 82 82 82 82 125 125 125 125 125
 125 125 192 192 192 192 192 132 132 132 132 132 132 75 75 225 225 82 82 82
 82 82 109 109 109 125 125 125 125 125 125 192 192 192 192 192 192 132 132 132
 132 132 132 225 225 225 225 82 82 82 109 109 109 109 125 125 125 125 125 125
 192 192 192 192 192 154 132 132 132 132 132 132 225 225 225 225 225 225 109 109
 109 109 109 109 125 125 125 125 125 192 192 192 192 192 154 154 132 132 132 132
 132 225 225 225 225 225 225 109 109 109 109 109 109 125 125 125 125 125 192 192
 192 192 154 154 154 154 132 132 132 225 225 225 225 225 225 225 109 109 109 109
 109 109 109 125 125 125 125 192 192 192 85 85 154 154 154 132 132 132 225 225
 225 225 225 225 93 109 109 109 109 109 109 109 109 153 61 61 85 85 85 85
 85 85 85 154 175 204 204 225 225 225 225 225 93 93 109 109 109 109 109 109
 153 153 153 61 61 61 85 85 85 85 85 85 175 175 204 204 204 204 205 205
 93 93 93 93 109 109 109 109 153 153 153 153 153 153 153 85 85 85 85 85
 85 85 204 204 204 204 204 204 204 93 93 93 127 127 127 189 153 153 153 153
 153 153 153 153 85 85 85 85 85 85 85 204 204 204 204 204 204 204 204 93
 93 20 20 20 20 153 153 153 153 153 153 153 153 172 172 85 85 85 85 158
 158 158 204 204 204 204 204 204 93 93 20 20 20 20 20 153 153 153 153 153
 153 172 172 172 172 69 186 186 158 158 158 158 89 89 89 89 89 89 20 20
 20 20 20 20 153 153 153 153 153 153 172 172 172 172 172 152 186 186 158 158
 89 89 89 89 89 89 20 20 20 20 20 20 20 153 153 153 153 153 153 172
 172 172 172 152 152 152 51 51 158 89 89 89 89 89 32 20 20 20 20 20
 20 20 42 42 42 42 115 115 115 172 172 152 152 152 152 51 51 51 137 137
 32 32 32 32 32 20 20 20 20 20 20 42 42 42 42 115 115 115 115 152
 152 152 152 51 51 51 51 137 137 32 32 32 32 32 32 20 239 239 239 239
 42 42 42 115 115 115 115 115 120 152 152 152 51 51 51 51 137 32 32 32
 32 32 32 32 239 239 239 239 239 239 42 42 115 115 115 115 120 120 120 152
 51 51 51 51 30 30 32 32 32 32 32 32 32 239 239 239 239 239 239 239
 114 92 68 68 120 120 120 120 120 51 51 30 30 30 30 32 32 32 32 32
 32 32 239 239 239 239 239 114 114 114 92 68 68 68 120 120 120 120 51 30
 30 30 30 30 32 32 32 32 32 32 32 239 239 239 239 114 114 114 114 114
 68 68 68 120 120 120 120 51 30 30 30 30 30 45 32 32 32 32 32 32
 52 52 52 52 114 114 114 114 114 87 87 62 120 120 120 120 120 30 30 30
 45 45 45 45 32 32 32 32 32 52 52 52 52 114 114 114 114 87 87 87
 62 62 62 62 62 62 135 135 135 135 45 45 45 45 32 231 231 231 52 52
 52 52 114 114 114 114 87 87 87 62 62 62 62 62 62 135 135 135 135 135
 45 45 71 231 231 231 231 231 52 52 52 114 114 114 87 87 87 87 62 62
 62 62 165 80 80 243 243 243 80 80 80 231 231 231 231 231 231 231 52 52
 121 114 87 87 87 87 87 62 62 62 62 165 80 243 243 243 243 243 80 80
 231 231 231 231 231 231 82 82 82 82 23 23 87 191 191 191 191 62 62 62
 165 80 80 243 243 243 80 80 80 231 231 231 231 231 82 82 82 82 82 125
 125 125 125 191 191 191 191 62 122 122 80 80 243 243 243 80 80 80 231 231
 231 231 231 82 82 82 82 82 125 125 125 125 125 191 173 122 122 122 122 122
 80 80 80 80 80 75 75 82 82 82 82 82 82 82 82 82 82 125 125 125
 125 125 173 173 173 122 122 122 122 132 132 132 132 132 75 225 225 82 82 82
 82 82 82 82 109 109 125 125 125 125 125 173 173 173 192 122 122 122 132 132
 132 132 132 132 225 225 225 225 82 82 82 82 109 109 109 109 125 125 125 125
 173 173 173 192 192 122 122 132 132 132 132 132 132 225 225 225 225 225 82 109
 109 109 109 109 109 125 125 125 125 173 173 130 130 130 130 154 154 132 132 132
 132 225 225 225 225 225 225 225 109 109 109 109 109 109 109 125 125 125 173 173
 130 130 130 130 154 154 154 132 132 132 225 225 225 159 225 225 225 109 109 109
 109 109 109 109 125 125 125 173 130 130 130 130 85 85 154 154 132 132 225 225
 225 225 225 225 225 225 109 109 109 109 109 109 109 153 153 153 130 130 130 130
 85 85 85 85 85 85 204 204 205 205 205 205 205 205 93 109 109 109 109 109
 109 153 153 153 153 153 130 130 85 85 85 85 85 85 85 204 204 204 205 205
 205 205 205 93 93 109 109 109 109 153 153 153 153 153 153 153 85 85 85 85
 85 85 85 85 204 204 204 204 204 205 205 205 93 20 20 109 109 153 153 153
 153 153 153 153 153 153 85 85 85 85 85 85 158 158 204 204 204 204 204 205
 205 93 20 20 20 20 153 153 153 153 153 153 153 153 153 186 186 186 186 186
 158 158 158 158 89 89 89 89 89 89 20 20 20 20 20 20 153 153 153 153
 153 153 153 172 186 186 186 186 186 158 158 158 158 89 89 89 89 89 89 20
 20 20 20 20 20 153 153 153 153 153 153 153 247 186 186 186 186 186 186 158
 158 158 89 89 89 89 89 20 20 20 20 20 20 20 153 153 153 153 153 153
 247 247 186 186 186 186 186 51 51 158 89 89 89 89 89 89 20 20 20 20
 20 20 20 42 42 153 153 153 247 247 247 152 152 152 152 51 51 51 51 51
 89 89 89 32 32 20 20 20 20 20 20 239 42 42 42 42 115 115 115 115
 152 152 152 152 51 51 51 51 51 51 32 32 32 32 32 20 239 239 239 239
 239 239 42 42 115 115 115 115 120 120 152 152 51 51 51 51 51 51 32 32
 32 32 32 32 32 239 239 239 239 239 239 92 92 92 68 68 68 120 120 120
 51 51 51 51 51 51 51 32 32 32 32 32 32 32 239 239 239 239 239 239
 92 92 92 68 68 68 120 120 120 120 51 51 51 30 30 30 32 32 32 32
 32 32 32 239 239 239 239 239 239 92 92 92 68 68 68 120 120 120 120 51
 51 30 30 30 30 32 32 32 32 32 32 32 239 239 239 239 239 114 114 92
 92 68 68 68 68 120 120 120 51 30 30 30 30 30 45 32 32 32 32 32
 32 52 52 52 52 52 114 114 114 87 87 87 68 120 120 120 120 120 30 30
 135 135 135 45 45 32 32 32 206 206 52 52 52 52 52 114 114 114 87 87
 87 62 62 62 62 62 62 135 135 135 135 135 45 45 71 71 206 206 206 52
 52 52 52 52 114 114 87 87 87 87 62 62 62 62 62 80 80 135 135 135
 135 80 80 71 206 206 206 206 206 52 52 52 52 114 114 87 87 87 87 62
 62 62 62 62 80 80 80 80 80 80 80 80 206 206 206 206 206 206 206 52
 52 52 114 87 87 87 87 87 62 62 62 62 62 80 80 80 80 80 80 80
 80 206 206 206 206 206 206 82 82 82 82 23 23 87 87 87 87 62 62 62
 62 62 80 80 80 80 80 80 80 80 206 206 206 206 206 82 82 82 82 82
 23 23 23 23 227 191 191 122 122 122 122 122 80 80 80 80 80 80 80 206
 206 231 231 82 82 82 82 82 82 91 91 98 98 227 173 173 122 122 122 122
 122 122 80 80 80 80 80 80 82 82 82 82 82 82 82 82 82 82 91 91
 98 98 98 173 173 173 122 122 122 122 122 122 132 181 181 181 181 225 82 82
 82 82 82 82 82 82 109 91 91 98 98 98 173 173 173 122 122 122 122 122
 132 132 181 181 181 225 225 225 82 82 82 82 82 109 109 109 91 98 98 98
 173 173 173 173 130 130 122 122 122 132 132 181 181 181 225 225 225 225 82 82
 82 109 109 109 109 109 98 98 98 173 173 173 130 130 130 130 154 154 132 132
 181 181 181 225 225 225 225 225 82 109 109 109 109 109 109 98 98 98 173 173
 173 130 130 130 130 130 154 154 132 181 181 225 225 225 225 225 225 225 109 109
 109 109 109 109 109 98 98 173 173 130 130 130 130 130 85 154 154 132 181 181
 225 225 225 225 225 225 225 109 109 109 109 109 109 109 153 153 153 130 130 130
 130 130 85 85 85 85 85 204 204 205 205 205 205 205 205 205 109 109 109 109
 109 153 153 153 153 153 153 130 130 130 85 85 85 85 85 85 77 77 77 205
 205 205 205 205 205 109 109 109 109 153 153 153 153 153 153 153 153 130 130 85
 85 85 85 85 77 77 77 77 77 205 205 205 205 205 20 20 20 153 153 153
 153 153 153 153 153 153 153 186 186 85 85 85 158 158 158 158 77 77 77 205
 205 205 205 20 20 20 20 153 153 153 153 153 153 153 153 153 186 186 186 186
 186 186 158 158 158 89 89 89 89 89 205 205 20 20 20 20 20 153 153 153
 153 153 153 153 247 186 186 186 186 186 186 158 158 158 89 89 89 89 89 89
 20 20 20 20 20 20 153 153 153 153 153 153 247 247 186 186 186 186 186 186
 158 158 158 89 89 89 89 89 20 20 20 20 20 20 20 153 153 153 153 153
 247 247 247 186 186 186 186 186 51 51 158 158 89 89 89 89 89 20 20 20
 20 20 20 20 153 153 153 153 247 247 247 247 186 186 186 186 51 51 51 51
 51 89 89 89 89 20 20 20 20 20 20 20 239 239 153 153 153 247 247 247
 247 186 152 152 51 51 51 51 51 51 89 32 32 32 32 20 20 239 239 239
 239 239 239 92 92 92 247 68 68 68 120 152 51 51 51 51 51 51 51 51
 32 32 32 32 32 20 239 239 239 239 239 239 92 92 92 68 68 68 68 120
 120 51 51 51 51 51 51 51 236 32 32 32 32 32 32 239 239 239 239 239
 239 92 92 92 68 68 68 68 120 120 51 51 51 51 51 51 51 236 236 236
 32 32 32 32 239 239 239 96 239 239 92 92 92 68 68 68 68 120 120 120
 51 51 51 103 103 103 236 236 236 236 32 32 32 239 239 239 239 239 239 92
 92 92 68 68 68 68 120 120 120 51 51 103 103 103 103 236 236 236 236 32
 32 206 52 52 52 52 52 52 114 92 87 87 68 68 68 120 120 120 120 51
 103 103 103 80 236 236 71 71 71 71 206 52 52 52 52 52 52 114 87 87
 87 87 87 62 62 62 62 80 80 80 135 135 80 80 71 71 71 71 71 206
 52 52 52 52 52 52 114 87 87 87 87 87 62 62 62 62 80 80 80 80
 80 80 80 71 71 71 206 206 206 206 52 52 52 52 52 87 87 87 87 87
 87 62 62 62 62 80 80 80 80 80 80 80 217 217 206 206 206 206 206 206
 52 52 52 23 23 87 87 87 87 87 62 62 62 62 80 80 80 78 80 80
 80 217 217 206 206 206 206 206 82 82 82 23 23 23 23 23 23 87 87 62
 62 122 80 80 80 80 80 80 80 80 217 217 206 206 206 206 82 82 82 82
 82 23 23 23 23 227 227 227 122 122 122 122 122 80 80 80 80 80 80 217
 217 206 206 206 82 82 82 82 82 82 23 23 23 227 227 227 227 122 122 122
 122 122 122 80 80 80 80 80 181 217 82 82 82 82 82 82 82 82 91 91
 91 91 98 227 227 173 173 122 122 122 122 122 122 181 181 181 181 181 215 215
 82 82 82 82 82 82 82 91 91 91 98 98 98 173 173 173 122 122 122 122
 122 122 181 181 181 181 181 215 215 82 82 82 82 82 82 109 109 91 91 98
 98 173 173 173 173 130 130 122 122 122 181 181 181 181 181 181 215 215 215 82
 82 82 109 109 109 109 98 98 98 98 173 173 173 130 130 130 130 130 130 181
 181 181 181 181 181 225 225 225 82 82 109 109 109 109 109 109 98 98 98 173
 173 130 130 130 130 130 130 130 181 181 181 181 181 225 225 225 225 225 82 109
 109 109 109 109 109 98 98 98 173 173 130 130 130 130 130 130 130 181 181 181
 181 181 225 225 225 205 205 205 109 109 109 109 109 109 153 153 153 153 130 130
 130 130 130 130 85 85 85 85 205 205 205 205 205 205 205 205 205 109 109 109
 109 109 153 153 153 153 153 153 130 130 130 130 85 85 85 85 43 77 77 77
 205 205 205 205 205 205 20 244 244 153 153 153 153 153 153 153 153 153 190 130
 130 85 85 43 43 43 77 77 77 77 205 205 205 205 205 20 244 244 244 153
 153 153 153 153 153 153 153 153 186 186 186 186 186 43 158 158 158 77 77 77
 205 205 205 205 20 244 244 244 244 153 153 153 153 153 153 153 247 186 186 186
 186 186 186 158 158 158 89 89 89 89 89 205 205 20 20 20 244 244 153 153
 153 153 153 153 247 247 186 186 186 186 186 186 158 158 158 89 89 89 89 89
 89 20 20 20 20 20 244 153 153 153 153 153 247 247 247 186 186 186 186 186
 186 158 158 158 89 89 89 89 89 20 20 20 20 20 20 20 153 153 124 153
 247 247 247 247 186 186 186 186 186 186 51 158 158 89 89 89 89 89 20 20
 20 20 20 20 20 124 124 124 247 247 247 247 247 186 186 186 186 186 51 51
 51 51 89 89 89 89 89 20 20 20 20 20 20 239 239 124 124 247 247 247
 247 247 186 186 186 186 51 51 51 51 51 51 32 32 32 157 20 20 116 116
 116 239 239 239 92 92 245 247 247 247 247 186 186 51 51 51 51 51 51 51
 51 236 236 236 157 157 20 116 116 239 239 239 239 92 92 92 68 68 68 68
 68 120 51 51 51 51 51 51 51 236 236 236 236 157 157 157 116 116 239 239
 239 239 92 92 92 68 68 68 68 68 120 51 51 51 51 103 103 103 236 236
 236 236 236 157 157 239 239 239 239 239 239 92 92 92 68 68 68 68 68 120
 51 51 51 103 103 103 236 236 236 236 236 236 157 157 239 239 239 239 239 239
 92 92 92 68 68 68 68 68 120 120 51 103 103 103 103 236 236 236 236 236
 236 236 76 52 52 52 52 52 52 239 92 87 87 68 68 68 68 120 213 213
 213 103 103 103 236 236 236 71 71 71 71 71 52 52 52 52 52 52 114 87
 87 87 87 87 62 62 62 62 80 80 80 80 80 80 236 71 71 71 71 71
 71 52 52 52 52 52 52 52 87 87 87 87 87 62 62 62 62 80 80 80
 80 80 80 80 71 71 71 71 71 206 206 52 52 52 52 52 87 87 87 87
 87 87 62 62 62 80 80 80 80 80 80 80 80 217 217 217 206 206 206 206
 206 52 52 52 23 23 23 87 87 87 87 62 62 62 80 80 80 80 80 80
 80 80 217 217 217 206 206 206 206 206 82 82 23 23 23 23 23 23 87 87
 62 62 122 80 80 80 80 80 80 80 80 217 217 217 206 206 206 82 82 82
 82 23 23 23 23 23 227 227 227 227 122 122 122 122 80 80 80 80 80 80
 217 217 217 206 206 206 82 82 82 82 82 23 23 23 227 227 227 227 227 122
 122 122 122 122 80 80 80 181 181 181 217 217 82 82 82 82 82 82 82 91
 91 91 161 227 227 227 173 173 122 122 122 122 122 122 181 181 181 181 181 215
 215 215 82 82 82 82 82 82 91 91 91 91 98 227 227 173 173 173 122 122
 122 122 181 181 181 181 181 181 215 215 215 82 82 82 82 82 82 91 91 91
 98 98 173 173 173 173 130 130 122 122 122 181 181 181 181 181 181 215 215 215
 215 82 82 82 109 109 109 91 98 98 98 173 173 173 130 130 130 130 122 181
 181 181 181 181 181 181 215 215 215 215 82 109 109 109 109 109 109 98 98 98
 173 173 130 130 130 130 130 130 130 181 181 181 181 181 181 215 215 215 220 220
 220 109 109 109 109 109 98 98 98 173 173 130 130 130 130 130 130 130 181 181
 181 181 181 181 205 205 205 220 220 220 220 109 109 166 166 153 153 153 190 190
 190 190 130 130 130 85 43 43 43 43 205 205 205 205 205 205 220 220 220 220
 244 166 166 166 153 153 153 153 190 190 190 190 130 130 43 43 43 43 43 77
 77 205 205 205 205 205 220 244 244 244 166 166 166 153 153 153 153 190 190 190
 190 190 43 43 43 43 43 43 77 77 77 205 205 205 205 205 244 244 244 244
 166 166 153 153 153 153 153 190 190 186 186 43 43 43 43 9 158 89 89 89
 89 205 205 205 205 244 244 244 244 166 166 153 153 153 153 153 247 247 186 186
 186 186 43 9 9 158 89 89 89 89 89 89 205 20 244 244 244 244 244 124
 124 124 124 153 247 247 247 186 186 186 186 186 9 9 158 158 89 89 89 89
 89 89 20 20 244 244 244 244 124 124 124 124 124 247 247 247 186 186 186 186
 186 186 9 158 158 89 89 89 89 89 20 20 20 20 244 244 244 124 124 124
 124 247 247 247 247 186 186 186 186 186 186 51 158 158 89 89 89 89 89 20
 20 20 20 20 244 244 124 124 124 124 247 247 247 247 186 186 186 186 186 51
 51 51 51 89 89 89 89 157 20 20 116 116 116 244 244 245 245 245 245 247
 247 247 247 186 186 186 186 51 51 51 51 51 51 35 35 157 157 157 20 116
 116 116 239 239 245 245 245 245 245 247 247 247 186 186 186 51 51 51 51 51
 51 51 236 236 142 157 157 157 116 116 116 119 119 245 245 245 245 245 68 68
 19 19 19 51 51 51 51 51 51 51 236 236 236 142 157 157 157 116 116 119
 119 119 119 245 245 245 245 68 68 19 19 19 51 51 51 103 103 103 103 236