# vtk DataFile Version 2.0
Data set from ImportExport Version 6.5.171.b0b162591
ASCII

DATASET RECTILINEAR_GRID
DIMENSIONS 30 30 30
X_COORDINATES 30 float
-1.250000 1.250000 3.750000 6.250000 8.750000 11.250000 13.750000 16.250000 18.750000 21.250000 23.750000 26.250000 28.750000 31.250000 33.750000 36.250000 38.750000 41.250000 43.750000 46.250000 48.750000 
51.250000 53.750000 56.250000 58.750000 61.250000 63.750000 66.250000 68.750000 71.250000 
Y_COORDINATES 30 float
-1.250000 1.250000 3.750000 6.250000 8.750000 11.250000 13.750000 16.250000 18.750000 21.250000 23.750000 26.250000 28.750000 31.250000 33.750000 36.250000 38.750000 41.250000 43.750000 46.250000 48.750000 
51.250000 53.750000 56.250000 58.750000 61.250000 63.750000 66.250000 68.750000 71.250000 
Z_COORDINATES 30 float
-1.250000 1.250000 3.750000 6.250000 8.750000 11.250000 13.750000 16.250000 18.750000 21.250000 23.750000 26.250000 28.750000 31.250000 33.750000 36.250000 38.750000 41.250000 43.750000 46.250000 48.750000 
51.250000 53.750000 56.250000 58.750000 61.250000 63.750000 66.250000 68.750000 71.250000 
CELL_DATA 24389
SCALARS FeatureIds int 1
LOOKUP_TABLE default
 91 26 26 26 190 190 190 190 190 24 24 24 24 24 174 174 174 174 174 174
 123 123 123 39 91 91 91 91 91 26 26 26 26 190 190 190 190 190 190 24
 24 24 24 174 174 174 174 174 174 221 123 123 123 91 91 91 91 91 26 26
 26 26 190 190 190 190 190 190 24 24 24 24 174 174 174 174 174 174 221 221
 123 123 93 93 93 93 93 93 69 69 69 190 190 190 190 190 190 190 24 24
 24 234 234 234 234 234 234 221 221 123 123 93 93 93 93 93 93 69 69 69
 190 190 190 190 190 190 190 191 191 191 234 234 234 234 234 234 221 80 64 64
 93 93 93 93 93 93 69 69 69 190 190 190 190 190 190 191 191 191 191 234
 234 234 234 234 234 80 80 80 80 93 93 93 93 93 93 69 69 69 69 190
 190 190 190 190 191 191 191 191 234 234 234 234 234 234 80 80 80 80 80 93
 93 93 93 69 69 69 69 69 190 190 190 190 232 232 232 232 232 234 234 234
 234 234 234 80 80 80 80 80 93 93 93 93 83 69 69 69 201 27 27 27
 232 232 232 232 232 232 232 234 234 234 234 234 80 80 80 80 83 83 83 83
 83 83 83 201 201 201 27 27 27 27 232 232 232 232 232 232 75 75 75 75
 75 80 80 80 187 187 187 83 83 83 130 130 201 201 201 27 27 27 27 27
 232 232 232 232 232 75 75 75 75 75 75 80 148 148 187 187 187 226 226 130
 130 201 201 201 27 27 27 27 27 232 232 232 232 75 75 75 75 75 75 75
 75 148 148 187 187 226 226 226 130 130 201 201 201 27 27 27 27 27 232 232
 232 232 75 75 75 75 75 75 75 212 212 212 187 187 226 226 226 130 130 201
 201 201 27 27 27 27 27 27 77 77 77 75 75 75 75 75 75 212 212 212
 212 212 187 187 226 226 36 36 36 201 40 40 40 40 40 40 40 77 77 77
 75 75 75 74 75 75 212 212 212 212 212 212 212 226 226 36 36 36 36 40
 40 40 40 40 40 77 77 77 77 77 103 103 103 103 103 212 212 212 212 212
 212 212 212 212 36 36 36 36 81 40 40 40 40 40 77 77 77 77 77 103
 103 103 103 103 212 212 212 212 212 212 212 212 212 36 36 36 36 81 81 40
 40 40 77 77 77 77 77 77 103 103 103 103 103 212 212 212 212 212 212 212
 212 212 146 146 146 146 81 81 119 119 119 119 77 77 77 77 77 103 103 103
 103 103 212 212 212 212 212 212 212 212 212 146 146 146 146 81 119 119 119 119
 119 119 77 77 77 77 103 103 103 103 103 212 212 212 212 212 212 4 4 109
 146 146 146 109 1 1 1 119 119 119 119 204 204 204 204 103 103 103 103 87
 87 87 87 4 4 4 4 4 109 109 109 109 109 109 1 1 1 119 119 204
 204 204 204 204 164 164 164 164 87 87 87 87 87 4 4 4 4 109 109 109
 109 109 109 1 1 1 1 204 204 204 204 204 204 164 164 164 164 87 87 87
 87 87 4 4 4 109 109 109 109 109 109 109 1 1 1 1 204 204 204 204
 204 122 164 164 164 164 87 87 87 87 87 4 4 4 109 109 109 109 109 109
 109 1 1 1 1 204 204 204 204 204 122 122 164 164 164 87 87 87 87 87
 87 91 91 91 109 109 109 109 109 109 109 1 1 204 204 204 204 204 122 122
 122 122 222 222 222 87 87 87 39 39 91 91 91 91 91 91 109 109 109 109
 153 151 151 151 151 151 151 122 122 122 222 222 222 222 87 39 39 39 39 91
 91 91 91 91 91 91 109 109 160 160 151 151 151 151 151 151 151 122 222 222
 222 222 222 222 39 39 39 39 91 91 91 91 91 91 91 91 91 160 160 160
 151 151 151 151 151 151 151 222 222 222 222 222 123 39 39 39 39 91 91 91
 91 91 91 26 26 190 190 190 190 190 190 24 24 24 24 174 174 174 174 174
 174 123 123 123 39 39 91 91 91 91 91 91 26 26 190 190 190 190 190 190
 190 24 24 168 174 174 174 169 174 174 123 123 123 123 39 91 91 91 91 26
 26 26 190 190 190 190 190 190 190 190 24 24 24 174 174 174 174 174 174 123
 123 123 123 123 93 93 93 93 93 93 69 190 190 190 190 89 190 190 190 24
 24 234 234 234 234 234 234 234 123 123 123 123 93 93 93 93 93 93 93 69
 69 190 190 190 190 190 190 190 191 191 234 234 234 234 234 234 234 80 80 80
 80 93 93 93 93 93 93 93 69 69 190 190 190 190 190 190 190 191 191 234
 234 234 234 234 234 234 80 80 80 80 93 93 93 93 93 93 93 69 69 69
 190 190 190 190 190 191 191 191 232 234 234 234 234 234 234 80 80 80 80 93
 93 93 93 93 93 93 69 69 201 190 190 190 190 232 232 232 232 232 232 234
 234 234 234 234 80 80 80 80 80 83 83 83 83 83 83 69 201 201 27 27
 27 232 232 232 232 232 232 232 115 115 115 115 234 80 80 80 80 83 83 83
 83 83 83 35 201 201 201 27 27 27 27 232 232 232 232 232 232 115 115 115
 115 115 223 80 80 187 187 187 83 83 83 226 35 201 201 201 27 27 27 27
 27 232 232 232 232 232 115 115 115 115 75 223 223 148 148 148 187 148 226 226
 226 35 201 201 201 27 27 27 27 27 232 232 232 232 65 75 75 75 75 75
 75 143 148 148 148 148 226 226 226 35 35 201 201 201 27 27 27 27 27 232
 232 232 65 65 75 75 75 75 75 143 143 212 148 148 187 226 226 226 35 35
 201 201 201 27 27 27 27 27 27 77 77 65 65 75 75 75 75 75 143 143
 212 212 187 187 187 226 226 36 36 36 201 40 40 40 40 40 40 77 77 77
 77 77 103 103 74 75 143 212 212 212 212 212 212 212 226 226 36 36 36 81
 81 40 40 40 40 40 77 77 77 77 77 103 103 103 103 103 212 212 212 212
 212 212 212 212 226 36 36 36 81 81 81 40 40 40 77 77 77 77 77 77
 103 103 103 103 103 212 212 212 212 212 212 212 212 227 227 227 227 81 81 81
 81 40 40 77 77 77 77 77 77 103 103 103 103 103 97 97 212 212 212 212
 212 212 227 146 146 146 81 81 81 81 119 119 77 77 77 77 77 77 103 103
 103 103 103 97 97 97 212 212 212 212 212 227 177 177 177 177 81 1 1 1
 119 119 77 77 77 77 77 103 103 103 103 103 97 97 97 196 196 212 4 4
 109 177 177 177 177 1 1 1 1 1 119 119 77 77 77 102 103 103 103 103
 87 87 87 87 196 196 4 4 4 109 109 109 109 109 109 1 1 1 1 1
 204 204 204 204 102 164 164 164 164 87 87 87 87 196 196 4 4 109 109 109
 109 109 109 109 1 1 1 1 1 204 204 204 204 164 164 164 164 164 87 87
 87 87 87 196 4 4 109 109 109 109 109 109 109 1 1 1 1 1 204 204
 204 204 122 164 164 164 164 87 87 87 87 87 87 91 109 109 109 109 109 109
 109 109 109 1 1 1 204 204 204 204 122 122 122 164 164 164 87 87 87 87
 87 87 91 91 91 109 109 109 109 109 109 109 153 153 153 204 204 204 204 122
 122 122 122 222 222 222 87 87 87 39 39 91 91 91 91 91 91 109 109 109
 153 153 153 153 151 151 151 151 122 122 122 222 222 222 222 87 39 39 39 39
 91 91 91 91 91 91 109 109 109 160 160 160 160 151 151 151 151 151 122 222
 222 222 222 222 222 39 39 39 39 91 91 91 91 91 91 91 91 160 160 160
 160 160 151 151 151 151 151 122 222 222 222 222 222 123 39 39 39 39 91 91
 91 91 91 91 91 91 190 190 190 190 190 190 190 168 168 168 174 174 174 174
 174 185 185 185 185 185 91 91 91 91 91 91 91 91 190 190 190 190 190 190
 190 190 168 168 168 168 174 174 174 174 185 185 185 185 185 91 91 91 91 91
 91 91 26 190 190 190 190 190 190 190 190 190 168 168 174 174 174 174 174 185
 185 185 185 185 185 93 93 93 93 93 93 69 190 190 190 190 190 190 190 190
 190 168 168 168 234 234 234 234 185 185 185 185 185 93 93 93 93 93 93 93
 69 190 190 190 190 190 190 190 190 190 168 168 234 234 234 234 234 234 185 80
 80 80 93 93 93 93 93 93 93 69 69 190 190 190 190 190 190 190 190 191
 234 234 234 234 234 234 234 80 80 80 80 93 93 93 93 93 93 93 69 69
 190 190 41 41 41 190 190 232 232 232 234 234 234 234 234 234 80 80 80 80
 147 93 93 93 93 83 83 69 201 41 41 41 41 41 41 232 232 232 232 234
 234 234 234 234 234 80 80 80 80 147 147 83 83 83 83 83 83 201 201 41
 41 41 41 232 232 232 232 232 232 115 115 115 115 115 80 80 80 83 83 83
 83 83 83 83 35 35 201 201 27 27 27 27 232 232 232 232 232 232 115 115
 115 115 115 223 223 223 83 83 83 83 83 83 35 35 35 201 201 27 27 27
 27 27 232 232 232 232 65 115 115 115 115 115 223 223 223 148 187 187 187 226
 226 35 35 35 201 201 27 27 27 27 27 232 232 65 65 65 65 115 115 115
 115 143 223 143 148 187 187 226 226 226 35 35 35 201 201 27 27 27 27 27
 232 232 65 65 65 65 75 75 143 143 143 143 143 143 187 187 187 226 226 35
 35 35 201 201 27 27 27 27 27 27 77 65 65 65 65 75 75 143 143 143
 143 143 143 187 187 187 226 226 35 35 35 201 40 40 40 40 40 40 77 77
 77 77 125 125 125 125 143 143 143 143 143 143 143 187 187 226 226 227 227 227
 81 81 81 40 40 40 40 77 77 77 77 125 125 125 125 103 103 97 97 97
 97 212 212 212 226 227 227 227 227 81 81 81 40 40 40 77 77 77 77 77
 125 125 125 103 103 103 97 97 97 97 212 212 212 227 227 227 227 227 81 81
 81 81 81 40 77 77 77 77 77 125 125 125 103 103 103 97 97 97 97 212
 212 212 227 227 177 227 227 81 81 81 81 81 119 77 77 77 77 77 125 125
 125 103 103 103 97 97 97 97 97 212 212 227 227 177 177 177 177 81 81 81
 1 1 77 77 77 77 77 125 125 125 103 103 103 97 97 97 97 196 196 4
 177 177 177 177 177 177 81 1 1 1 1 1 119 77 77 102 102 102 125 103
 103 87 97 87 196 196 196 196 4 177 177 177 177 177 177 177 1 1 1 1
 1 1 204 102 102 102 102 164 164 164 87 87 87 196 196 196 196 196 177 177
 109 109 109 109 109 1 1 1 1 1 204 204 204 102 102 102 164 164 164 87
 87 87 87 196 196 196 109 109 109 109 109 109 109 109 1 1 1 1 1 204
 204 204 102 122 164 164 164 164 87 87 87 87 87 196 196 109 109 109 109 109
 109 109 109 153 153 153 153 153 204 204 204 122 122 122 164 164 164 164 87 87
 87 87 196 91 91 91 109 109 109 109 109 109 153 153 153 153 153 204 204 122
 122 122 122 122 222 222 222 87 87 87 39 39 91 91 91 91 91 91 109 109
 109 153 153 153 153 153 151 151 122 122 122 122 222 222 222 222 87 39 39 39
 39 91 91 91 91 91 91 91 109 160 160 160 160 160 160 151 151 151 122 122
 222 222 222 222 222 222 39 39 39 39 91 91 91 91 91 91 91 91 160 160
 160 160 160 160 151 151 168 168 122 222 222 222 222 222 185 185 39 39 39 91
 91 91 91 91 91 91 91 160 160 160 160 160 160 168 168 168 168 168 168 174
 174 174 185 185 185 185 185 91 91 91 91 91 91 91 214 190 190 190 190 190
 190 190 168 168 168 168 168 168 174 174 174 185 185 185 185 185 185 91 91 91
 91 91 214 214 190 190 190 190 190 190 190 190 168 168 168 168 168 174 174 174
 185 185 185 185 185 185 93 93 93 93 93 214 214 190 190 190 190 190 190 190
 190 168 168 168 168 168 234 234 234 185 185 185 185 185 185 93 93 93 93 93
 93 69 190 190 190 190 190 190 190 190 168 168 168 168 234 234 234 234 234 185
 185 185 185 93 93 93 93 93 93 93 69 69 190 190 190 190 190 190 190 168
 168 168 234 234 234 234 234 234 80 80 80 80 93 93 93 93 93 93 93 69
 41 41 41 41 41 41 41 41 232 232 234 234 234 234 234 234 234 80 80 80
 80 147 147 83 83 93 83 83 83 41 41 41 41 41 41 41 41 232 232 232
 234 234 115 115 237 237 80 80 80 147 147 147 83 83 83 83 83 83 35 41
 41 41 41 41 41 232 232 232 232 115 115 115 115 115 115 223 223 223 147 147
 147 83 83 83 83 35 35 35 35 53 41 41 41 232 232 232 232 65 65 115
 115 115 115 115 223 223 223 223 83 83 83 83 83 35 35 35 35 53 53 27
 27 27 27 232 232 65 65 65 65 115 115 115 223 223 223 223 223 187 187 83
 83 83 35 35 35 35 53 53 27 27 27 27 232 65 65 65 65 65 115 115
 115 223 223 223 223 223 187 187 187 226 35 35 35 35 35 53 53 27 27 27
 27 27 65 65 65 65 65 65 115 143 143 143 143 143 143 143 187 187 226 35
 35 35 35 35 53 27 27 27 27 27 27 65 65 65 65 65 65 143 143 143
 143 143 143 143 143 187 187 226 35 35 227 35 35 81 40 40 40 40 40 42
 42 65 65 65 125 125 143 143 143 143 143 143 143 143 143 187 226 35 227 227
 227 81 81 81 40 40 40 40 42 42 42 42 125 125 125 125 125 143 143 143
 143 143 143 143 227 227 227 227 227 227 81 81 81 81 40 40 42 42 42 42
 42 125 125 125 125 125 97 97 97 97 97 97 212 227 227 227 227 227 227 81
 81 81 81 81 40 42 42 42 42 42 125 125 125 125 125 97 97 97 97 97
 97 97 227 227 227 227 227 227 81 81 81 81 63 63 42 42 42 42 42 125
 125 125 125 125 97 97 97 97 97 97 97 227 227 227 177 177 177 177 81 81
 63 63 63 42 42 42 42 42 125 125 125 125 125 97 97 97 97 196 196 196
 177 177 177 177 177 177 177 81 63 63 1 1 172 172 172 172 102 102 102 108
 108 108 108 97 196 196 196 196 196 196 177 177 177 177 177 177 177 1 1 1
 1 172 172 172 172 102 102 102 108 108 108 108 87 87 196 196 196 196 196 177
 177 177 177 177 177 177 1 1 1 1 172 172 172 172 102 102 102 102 108 108
 108 87 87 196 196 196 196 196 177 177 109 109 109 109 109 153 153 153 153 153
 172 172 172 102 102 102 164 164 164 87 87 87 87 196 196 196 91 109 109 109
 109 109 109 109 153 153 153 153 153 153 172 172 102 122 122 164 164 164 47 47
 87 87 87 196 91 91 91 109 91 109 109 109 153 153 153 153 153 153 153 153
 122 122 122 122 122 222 222 47 47 47 47 39 39 91 91 91 91 91 91 109
 109 153 153 153 160 153 153 153 153 168 122 122 122 222 222 222 222 47 47 39
 39 39 91 91 91 91 91 91 91 91 160 160 160 160 160 160 160 168 168 168
 122 222 222 222 222 222 185 185 39 39 39 91 91 91 91 91 91 91 160 160
 160 160 160 160 160 160 168 168 168 168 222 222 222 222 185 185 185 185 39 39
 91 91 91 91 91 91 214 160 160 160 160 160 160 160 168 168 168 168 168 168
 174 56 56 56 185 185 185 185 185 91 91 91 91 214 214 214 21 21 160 160
 160 160 160 168 168 168 168 168 168 168 56 56 56 185 185 185 185 185 91 91
 91 91 214 214 214 214 21 190 190 190 190 190 168 168 168 168 168 168 174 56
 56 56 185 185 185 185 185 185 93 93 93 214 214 214 214 190 190 190 190 190
 190 168 168 168 168 168 168 168 56 56 56 185 185 185 185 185 93 93 93 93
 93 214 214 214 190 190 190 190 190 190 190 168 168 168 168 234 234 234 234 234
 185 185 185 185 185 93 93 93 93 93 38 38 38 41 41 41 41 41 41 41
 168 168 168 168 237 237 237 237 237 237 80 80 154 154 154 93 93 93 83 38
 38 38 41 41 41 41 41 41 41 41 65 168 237 237 237 237 237 237 237 80
 154 154 154 154 154 83 83 83 38 38 38 41 41 41 41 41 41 41 41 65
 65 237 237 237 237 237 237 237 223 154 154 154 154 83 83 83 83 83 35 35
 41 41 41 41 41 41 41 65 65 65 65 115 115 115 115 237 223 223 223 154
 154 154 83 83 83 83 35 35 35 53 53 41 41 41 41 65 65 65 65 65
 115 115 115 115 223 223 223 223 223 83 83 83 83 83 35 35 35 35 53 53
 53 53 27 65 65 65 65 65 65 65 115 115 115 223 223 223 223 223 223 83
 83 83 83 35 35 35 35 53 53 53 53 27 27 65 65 65 65 65 65 65
 115 115 223 223 223 223 223 143 187 187 226 35 35 35 35 35 53 53 53 53
 27 27 65 65 65 65 65 65 65 115 143 143 143 143 143 143 143 187 187 226
 35 35 35 35 35 53 53 53 27 27 27 65 65 65 65 65 65 65 143 143
 143 143 143 143 143 143 143 229 229 35 227 227 227 227 81 53 40 40 40 42
 42 42 42 65 65 65 125 143 143 143 143 143 143 143 143 143 229 229 227 227
 227 227 227 81 81 81 81 40 42 42 42 42 203 203 125 125 125 143 143 143
 143 143 143 143 143 227 227 227 227 227 227 227 81 81 81 81 40 42 42 42
 42 42 203 125 125 125 125 97 97 97 97 97 97 97 227 227 227 227 227 227
 227 81 81 81 63 63 42 42 42 42 42 125 125 125 125 125 97 97 97 97
 97 97 97 227 227 227 227 227 227 227 81 81 63 63 63 42 42 42 42 42
 203 125 125 125 125 97 97 97 97 97 97 97 227 227 227 227 227 227 227 81
 63 63 63 63 63 42 42 42 203 102 125 125 125 108 97 97 97 196 196 196
 196 227 227 227 177 177 177 177 81 63 63 63 63 172 172 172 172 102 102 102
 108 108 108 108 108 196 196 196 196 196 196 177 177 177 177 177 177 177 63 63
 63 63 172 172 172 172 102 102 102 108 108 108 108 108 87 196 196 196 196 196
 177 177 177 177 177 177 177 153 1 153 153 172 172 172 172 102 102 102 102 108
 108 108 108 87 196 196 196 196 196 177 177 177 177 177 177 153 153 153 153 153
 153 172 172 172 102 102 102 102 108 108 108 47 47 47 196 196 196 91 109 109
 109 109 109 109 153 153 153 153 153 153 153 172 172 102 102 102 102 164 164 47
 47 47 47 47 45 45 91 91 109 91 109 109 153 153 153 153 153 153 153 153
 153 172 122 122 122 122 222 47 47 47 47 47 47 45 91 91 91 91 91 91
 109 153 153 153 153 160 153 153 153 153 168 168 122 122 222 222 222 47 47 47
 47 39 39 91 91 91 91 91 91 91 153 153 160 160 160 160 160 160 168 168
 168 168 222 222 222 222 47 47 47 47 39 39 91 91 91 91 91 91 91 160
 160 160 160 160 160 160 160 168 168 168 168 168 222 222 56 56 185 185 185 185
 39 91 91 91 91 214 214 214 21 21 21 160 160 160 160 168 168 168 168 168
 168 168 56 56 56 56 185 185 195 195 195 91 91 91 214 214 214 21 21 21
 21 160 160 160 168 168 168 168 168 168 168 56 56 56 56 185 185 195 195 195
 91 91 91 214 214 214 214 21 21 21 21 160 160 168 168 168 168 168 168 168
 56 56 56 56 185 185 195 195 195 66 214 214 214 214 214 214 21 21 21 183
 183 183 168 168 168 168 168 168 168 56 56 56 56 185 185 185 185 154 93 214
 214 214 214 214 214 41 41 183 183 183 183 168 168 168 168 168 168 237 237 56
 56 56 185 185 185 154 154 93 93 214 38 38 38 38 41 41 41 41 41 41
 41 168 168 168 168 237 237 237 237 237 237 185 154 154 154 154 154 93 214 38
 38 38 38 41 41 41 41 41 41 41 41 168 168 237 237 237 237 237 237 237
 237 154 154 154 154 154 83 38 38 38 38 38 41 41 41 41 41 41 41 41
 65 65 237 237 237 237 237 237 237 223 154 154 154 154 154 83 83 38 38 38
 38 41 41 41 41 41 41 41 65 65 65 65 237 237 237 237 237 223 223 223
 154 154 154 154 83 83 83 35 35 53 53 53 41 41 41 41 65 65 65 65
 65 65 115 115 115 223 223 223 223 223 154 154 83 83 83 35 35 35 53 53
 53 53 53 41 41 65 65 65 65 65 65 115 115 115 223 223 223 223 223 223
 83 83 83 83 35 35 35 53 53 53 53 53 53 65 65 65 65 65 65 65
 65 115 223 223 223 128 223 223 143 143 83 229 35 35 35 35 53 53 53 53
 53 53 65 65 65 65 65 65 65 65 65 143 143 143 223 143 143 143 143 229
 229 229 35 35 35 53 53 53 53 53 53 65 65 65 65 65 65 65 65 143
 143 143 143 143 143 143 143 229 229 229 229 227 227 227 140 140 140 140 140 42
 42 42 42 42 65 65 65 125 143 143 143 143 143 143 143 143 143 229 229 229
 227 227 227 227 140 140 140 140 42 42 42 42 42 203 203 203 125 125 143 143
 143 143 143 143 143 143 227 227 227 227 227 227 227 140 140 140 140 42 42 42
 42 42 203 203 203 125 125 125 143 143 143 143 143 143 143 227 227 227 227 213
 227 227 81 81 63 63 63 42 42 42 42 203 203 203 125 125 125 97 97 97
 97 97 97 227 227 227 227 227 227 227 227 81 63 63 63 63 42 42 42 42
 203 203 203 125 125 125 70 70 97 97 97 97 227 227 227 227 227 227 227 227
 81 63 63 63 63 63 42 42 42 203 203 203 125 108 108 70 70 97 196 196
 196 117 227 227 227 177 177 177 177 63 63 63 63 63 172 172 172 172 102 102
 102 94 94 108 108 70 70 196 196 196 117 117 177 177 177 177 177 177 177 63
 63 63 63 172 172 172 172 102 102 102 94 94 108 108 108 196 196 196 196 117
 117 177 177 177 177 177 177 177 153 153 153 153 172 172 172 172 102 102 102 102
 108 108 108 108 47 196 196 196 117 117 177 177 177 177 177 138 153 153 153 153
 153 153 172 172 172 102 102 102 102 108 108 108 47 47 47 196 45 45 45 45
 109 177 177 177 153 153 153 153 153 153 153 153 172 172 102 102 102 102 108 47
 47 47 47 47 45 45 45 45 45 45 91 109 109 153 153 153 153 153 153 153
 153 153 172 102 102 102 102 47 47 47 47 47 47 45 45 45 45 45 91 91
 91 153 153 153 153 153 160 153 153 153 153 168 168 168 168 222 47 47 47 47
 47 47 45 45 45 45 45 91 91 91 91 153 153 160 160 160 160 160 153 168
 168 168 168 168 168 222 47 47 47 47 47 47 45 45 45 91 91 91 91 28
 160 160 160 160 160 160 160 160 168 168 168 168 168 168 56 56 56 56 185 185
 185 45 45 91 91 91 214 214 21 21 21 21 21 160 160 160 178 178 178 168
 168 178 178 56 56 56 56 56 195 195 195 195 66 66 214 214 214 214 21 21
 21 21 21 160 160 178 178 178 178 178 178 178 56 56 56 56 56 195 195 195
 195 195 66 214 214 214 214 214 21 21 21 21 160 160 178 178 168 168 178 178
 178 56 56 56 56 56 195 195 195 195 66 214 214 214 214 214 214 21 21 21
 183 183 183 168 168 168 168 168 178 178 56 56 56 56 56 185 195 195 66 66
 214 214 214 214 214 214 21 183 183 183 183 183 183 168 168 168 168 178 237 237
 56 56 56 56 185 154 154 154 154 214 214 214 38 38 38 38 183 183 183 183
 183 183 168 168 168 168 237 237 237 237 237 209 209 154 154 154 154 154 214 214
 38 38 38 38 41 41 41 41 41 41 41 159 65 168 237 237 237 237 237 209
 209 209 154 154 154 154 154 154 38 38 38 38 38 41 41 41 41 41 41 41
 159 65 65 237 237 237 237 237 209 209 209 154 154 154 154 154 154 38 38 38
 38 38 41 41 41 41 41 41 159 65 65 65 65 237 237 237 237 209 223 223
 223 154 154 154 154 83 38 38 38 38 38 53 53 41 41 41 159 159 65 65
 65 65 65 237 237 237 223 223 223 223 223 154 154 154 83 83 35 35 35 53
 53 53 53 53 159 159 159 65 65 65 65 65 65 115 223 223 223 223 223 223
 223 154 83 83 83 35 35 35 53 53 53 53 53 53 159 65 65 65 65 65
 65 65 65 223 223 223 223 223 223 143 143 229 229 229 229 35 35 53 53 53
 53 53 53 159 65 65 65 65 65 65 65 65 143 143 143 143 143 143 143 229
 229 229 229 229 229 35 140 140 140 140 140 140 65 65 65 65 65 65 65 65
 143 143 143 143 143 143 143 143 229 229 229 229 227 227 227 140 140 140 140 140
 140 42 42 42 203 203 203 203 203 143 143 143 143 143 143 143 143 229 229 229
 229 227 227 227 140 140 140 140 140 140 42 42 42 203 203 203 203 203 203 143
 143 143 143 143 143 143 143 229 229 227 227 227 227 227 140 140 140 140 140 42
 42 42 203 203 203 203 203 125 143 143 143 143 143 143 143 143 227 227 227 227
 227 227 227 140 140 140 63 63 42 42 42 203 203 203 203 203 125 70 70 70
 70 97 97 143 227 227 227 227 227 227 227 227 81 63 63 63 63 42 42 42
 203 203 203 203 203 125 70 70 70 70 70 70 117 117 227 227 227 227 227 227
 227 227 63 63 63 63 63 42 42 203 203 203 203 203 70 70 70 70 70 70
 196 117 117 117 227 227 227 227 227 227 63 63 63 63 63 172 172 172 172 203
 102 102 94 94 70 70 70 14 14 196 117 117 117 117 227 177 177 177 177 138
 63 63 63 63 172 172 172 172 102 102 102 94 94 108 108 14 14 14 117 117
 117 117 117 177 177 177 177 138 138 153 63 153 153 172 172 172 172 102 102 102
 102 108 108 14 14 14 14 196 117 117 117 117 177 177 177 138 138 138 153 153
 153 153 153 172 172 172 102 102 102 102 108 108 14 47 47 47 45 45 45 45
 45 45 138 138 138 138 153 153 153 153 153 153 153 172 172 102 102 102 102 108
 108 47 47 47 47 45 45 45 45 45 45 138 138 138 153 153 153 153 153 153
 153 153 153 207 207 102 102 102 47 47 47 47 47 47 45 45 45 45 45 45
 91 138 138 153 153 153 153 160 153 153 153 207 168 168 168 168 168 47 47 47
 47 47 47 45 45 45 45 45 45 91 91 157 157 153 160 160 160 160 160 160
 178 168 168 168 168 168 47 47 47 47 47 47 45 45 45 45 45 45 91 28
 28 21 21 21 160 160 160 160 160 178 168 168 168 168 168 56 56 56 56 185
 185 195 45 45 45 84 84 28 28 28 28 21 21 21 21 160 160 178 178 178
 178 178 178 178 56 56 56 56 195 195 195 195 66 66 66 214 214 214 28 28
 21 21 21 21 160 178 178 178 178 178 178 178 178 56 56 56 56 195 195 195
 195 66 66 66 214 214 214 214 28 21 21 21 21 21 178 178 178 178 178 178
 178 178 56 56 56 56 56 195 195 195 66 66 66 214 214 214 214 214 21 21
 21 183 183 183 178 178 178 178 178 178 178 56 56 56 56 56 195 195 66 66
 66 66 214 214 214 214 214 21 183 183 183 183 183 183 178 178 178 178 178 178
 237 56 56 56 100 195 195 66 66 66 214 214 214 214 214 214 214 183 183 183
 183 183 183 178 178 178 178 237 237 237 237 209 209 100 100 154 154 154 154 214
 214 38 38 38 38 38 183 183 183 183 183 159 159 208 208 208 237 237 237 209
 209 209 100 100 154 154 154 154 38 38 38 38 38 38 41 41 41 41 41 159
 159 159 208 208 208 208 237 237 209 209 209 100 100 154 154 154 154 154 38 38
 38 38 38 38 41 41 41 159 159 159 159 208 208 208 208 163 163 209 209 209
 100 144 144 154 154 154 83 38 38 38 38 38 38 41 41 41 159 159 159 159
 208 208 208 208 163 163 163 223 223 223 223 144 144 154 154 83 38 38 38 38
 53 53 53 53 159 159 159 159 65 65 208 208 208 163 163 163 223 223 223 223
 223 144 154 229 229 229 229 229 35 53 53 53 53 53 159 159 159 65 65 65
 65 65 65 163 223 223 223 223 223 223 143 229 229 229 229 229 229 140 140 53
 53 53 53 159 159 65 65 65 65 65 65 65 143 143 143 143 143 143 143 143
 229 229 229 229 229 229 140 140 140 140 140 140 140 159 65 65 65 65 65 65
 65 143 143 143 143 143 143 143 143 229 229 229 229 229 227 140 140 140 140 140
 140 140 42 203 203 203 203 203 203 203 181 181 143 143 143 143 143 143 229 229
 229 229 227 227 227 140 140 140 140 140 140 42 203 203 203 203 203 203 203 181
 181 181 143 143 143 143 143 229 229 229 229 227 227 227 140 140 140 140 140 140
 42 42 203 203 203 203 203 203 181 181 181 181 143 143 143 143 229 229 229 227
 227 227 227 227 140 140 140 140 63 42 42 203 203 203 203 203 203 203 70 70
 70 70 143 143 238 117 227 227 227 227 227 227 227 140 63 63 63 63 42 42
 203 203 203 203 203 203 70 70 70 70 70 70 238 238 117 117 227 227 227 227
 227 227 227 63 63 63 63 63 203 203 203 203 203 203 203 70 70 70 70 14
 14 117 117 117 117 227 227 227 227 227 138 138 63 63 63 63 172 172 172 203
 203 203 203 203 70 70 70 14 14 14 117 117 117 117 117 227 138 138 138 138
 138 138 63 63 63 172 172 172 172 102 102 102 14 14 14 14 14 14 14 117
 117 117 117 117 117 138 138 138 138 138 138 138 153 153 172 172 172 172 102 102
 102 102 14 14 14 14 14 14 117 117 117 117 117 117 138 138 138 138 138 138
 153 153 153 153 172 172 172 102 102 102 102 14 14 14 14 14 14 45 45 45
 45 45 45 138 138 138 138 138 153 153 153 153 153 207 207 194 194 194 102 102
 14 14 14 47 47 47 45 45 45 45 45 45 138 138 138 138 138 153 153 153
 153 153 207 207 207 207 194 194 102 14 47 47 47 47 47 45 45 45 45 45
 45 138 138 157 157 157 153 153 153 153 153 207 207 207 178 178 178 178 47 47
 47 47 47 47 45 45 45 45 45 45 157 157 157 157 157 160 160 160 160 160
 160 178 178 178 178 178 178 47 47 47 47 47 84 84 84 84 84 84 84 28
 28 28 28 21 21 160 160 160 160 160 178 178 178 178 178 178 56 56 56 56
 195 195 195 84 84 84 84 84 28 28 28 28 28 21 21 21 160 160 178 178
 178 178 178 178 178 134 56 56 56 195 195 195 66 66 66 66 66 214 28 28
 28 28 21 21 21 21 178 178 178 178 178 178 178 178 134 56 56 56 195 195
 195 66 66 66 66 214 214 214 28 28 28 21 21 21 21 21 178 178 178 178
 178 178 178 134 56 56 56 195 195 195 66 66 66 66 214 214 214 214 28 28
 21 217 217 217 217 178 178 178 178 178 178 178 134 56 56 56 195 195 66 66
 66 66 66 214 214 214 214 214 28 217 217 217 217 217 217 178 178 178 178 178
 178 100 100 100 100 100 116 66 66 66 66 214 214 214 214 214 214 217 217 217
 217 217 217 217 25 25 178 178 178 237 100 100 100 100 100 100 116 116 154 72
 214 214 38 38 38 38 217 217 217 217 217 217 159 159 208 208 208 208 237 100
 100 100 100 100 100 144 154 154 72 72 38 38 38 38 38 217 217 217 217 159
 159 159 159 208 208 208 208 163 100 100 100 100 100 100 144 144 154 154 72 38
 38 38 38 38 38 41 41 159 159 159 159 159 208 208 208 208 163 163 100 100
 100 100 144 144 144 144 72 72 38 38 38 38 38 38 41 41 159 159 159 159
 159 208 208 208 208 163 163 163 100 100 144 144 144 144 144 144 72 38 149 38
 235 235 53 53 159 159 159 159 159 208 208 208 208 208 163 163 163 163 223 223
 144 144 144 144 149 149 149 149 235 235 235 53 53 53 159 159 159 159 208 208
 208 208 208 163 163 163 223 223 223 223 144 144 149 149 149 149 149 235 235 235
 140 53 140 132 159 159 159 65 65 65 65 65 65 163 143 143 143 143 143 143
 143 149 149 149 149 149 235 235 140 140 140 140 140 132 132 132 203 65 65 65
 203 203 181 181 181 143 143 143 143 198 149 149 149 149 149 235 235 140 140 140
 140 140 140 132 203 203 203 203 203 203 203 181 181 181 181 143 143 143 143 149
 149 149 149 227 235 227 140 140 140 140 140 140 203 203 203 203 203 203 203 203
 181 181 181 181 181 143 143 198 149 149 149 149 227 227 227 140 140 140 140 140
 140 42 203 203 203 203 203 203 203 181 181 181 181 181 143 143 238 149 149 149
 227 227 227 227 140 140 140 140 140 140 42 203 203 203 203 203 203 203 181 181
 181 181 181 143 238 238 238 238 238 227 227 227 227 227 140 140 63 63 63 42
 203 203 203 203 203 203 203 203 70 70 70 14 14 238 238 238 238 238 227 227
 227 227 227 55 55 63 63 63 203 203 203 203 203 203 203 203 14 70 70 14
 14 14 238 238 238 238 238 227 227 138 138 138 138 138 63 63 63 203 203 203
 203 203 203 203 14 14 14 14 14 14 14 14 117 117 117 117 117 138 138 138
 138 138 138 138 63 63 172 172 172 172 102 102 102 14 14 14 14 14 14 14
 117 117 117 117 117 117 138 138 138 138 138 138 138 153 153 172 172 194 194 194
 194 102 14 14 14 14 14 14 14 14 117 117 117 117 117 138 138 138 138 138
 138 153 153 153 207 207 194 194 194 194 194 14 14 14 14 14 14 14 45 45
 45 45 45 45 138 138 138 138 138 138 153 153 153 207 207 207 194 194 194 194
 14 14 14 14 14 14 14 45 45 45 45 45 45 138 138 138 138 138 138 153
 153 153 207 207 207 207 194 194 194 194 14 14 47 47 47 45 45 45 45 45
 45 45 138 138 157 157 157 153 153 153 153 207 207 207 207 194 194 194 194 47
 47 47 47 47 84 84 84 84 84 84 84 157 157 157 157 157 157 160 160 160
 160 207 207 178 178 178 178 178 178 47 47 47 84 84 84 84 84 84 84 84
 28 28 28 157 28 21 21 160 160 160 178 178 178 178 178 178 178 178 56 56
 56 84 84 84 84 84 84 84 84 28 28 28 28 28 28 21 21 160 178 178
 178 178 178 178 178 134 134 134 134 33 33 195 66 66 66 66 66 66 28 28
 28 28 28 28 21 21 21 37 178 178 178 178 178 178 134 134 134 134 33 195
 195 66 66 66 66 66 66 214 28 28 28 28 28 21 21 217 37 25 25 25
 178 178 178 134 134 134 134 33 33 195 66 66 66 66 66 214 214 214 28 28
 28 28 217 217 217 217 25 25 25 25 25 178 134 134 134 134 33 116 116 66
 66 66 66 66 214 214 214 214 28 28 217 217 217 217 217 25 25 25 25 25
 25 100 100 100 100 100 116 116 116 116 116 66 66 214 214 214 214 28 28 217
 217 217 217 217 217 25 25 25 25 25 100 100 100 100 100 100 116 116 116 116
 72 72 214 7 7 7 7 217 217 217 217 217 217 159 208 208 208 208 208 100
 100 100 100 100 100 116 116 116 72 72 72 72 7 7 7 7 217 217 217 217
 217 159 159 208 208 208 208 208 163 100 100 100 100 100 144 144 144 72 72 72
 72 7 7 7 7 217 217 217 159 159 159 159 208 208 208 208 208 163 163 100
 100 100 100 144 144 144 72 72 72 72 7 7 7 7 159 159 159 159 159 159
 159 208 208 208 208 208 163 163 163 100 100 144 144 144 144 144 72 72 72 235
 235 235 235 235 132 132 132 159 159 159 208 208 208 208 208 163 163 163 163 223
 144 144 144 144 144 144 149 149 235 235 235 235 235 132 132 132 132 132 132 208