# vtk DataFile Version 2.0
Data set from ImportExport Version 6.5.171.b0b162591
ASCII

DATASET RECTILINEAR_GRID
DIMENSIONS 30 30 30
X_COORDINATES 30 float
-1.250000 1.250000 3.750000 6.250000 8.750000 11.250000 13.750000 16.250000 18.750000 21.250000 23.750000 26.250000 28.750000 31.250000 33.750000 36.250000 38.750000 41.250000 43.750000 46.250000 48.750000 
51.250000 53.750000 56.250000 58.750000 61.250000 63.750000 66.250000 68.750000 71.250000 
Y_COORDINATES 30 float
-1.250000 1.250000 3.750000 6.250000 8.750000 11.250000 13.750000 16.250000 18.750000 21.250000 23.750000 26.250000 28.750000 31.250000 33.750000 36.250000 38.750000 41.250000 43.750000 46.250000 48.750000 
51.250000 53.750000 56.250000 58.750000 61.250000 63.750000 66.250000 68.750000 71.250000 
Z_COORDINATES 30 float
-1.250000 1.250000 3.750000 6.250000 8.750000 11.250000 13.750000 16.250000 18.750000 21.250000 23.750000 26.250000 28.750000 31.250000 33.750000 36.250000 38.750000 41.250000 43.750000 46.250000 48.750000 
51.250000 53.750000 56.250000 58.750000 61.250000 63.750000 66.250000 68.750000 71.250000 
CELL_DATA 24389
SCALARS FeatureIds int 1
LOOKUP_TABLE default
 41 28 28 28 235 235 235 235 84 84 84 84 84 212 212 212 212 212 225 225
 188 188 188 188 15 15 15 15 157 41 28 28 28 235 235 235 235 84 84 84
 84 84 84 212 212 212 225 225 225 188 188 188 188 24 24 24 24 157 157 28
 28 235 235 235 235 235 84 84 84 84 84 84 212 212 212 225 225 225 188 188
 188 24 24 24 24 24 157 157 157 28 235 235 235 235 235 84 84 84 84 84
 84 212 212 212 225 225 188 188 188 24 24 24 24 24 24 157 157 157 67 67
 67 235 235 235 84 84 84 84 84 84 212 212 212 225 225 188 188 24 24 24
 24 24 24 203 203 174 67 67 67 67 67 67 67 124 84 84 84 84 90 90
 90 90 90 225 188 188 24 24 24 24 24 203 203 203 67 67 67 67 67 67
 67 67 124 124 124 90 90 90 90 90 90 90 90 197 197 24 24 24 24 203
 203 203 203 67 67 67 67 67 67 67 124 124 124 124 90 90 90 90 90 90
 90 90 197 197 230 230 230 151 203 203 203 203 187 67 67 67 67 67 66 124
 124 124 124 90 90 90 90 90 90 90 90 197 230 230 230 230 230 34 34 203
 203 187 187 67 67 66 66 66 124 124 124 124 90 90 90 90 90 90 90 90
 197 230 230 230 230 230 187 187 187 187 187 187 187 66 66 66 66 66 124 124
 124 90 90 90 90 90 90 90 90 120 230 230 230 230 230 187 187 187 187 187
 187 187 66 66 66 66 66 66 236 236 236 90 90 90 90 90 120 120 120 159
 159 230 230 187 187 187 187 187 187 187 187 66 66 66 66 66 66 236 236 236
 236 90 90 90 120 120 120 120 159 159 159 230 187 187 187 187 187 187 187 63
 63 66 66 66 66 236 236 236 236 236 236 90 120 120 120 120 120 159 159 159
 159 187 187 187 187 187 187 63 63 63 63 91 91 66 236 236 236 236 224 224
 224 224 120 120 120 120 159 159 159 159 133 187 187 187 187 63 63 63 63 91
 91 91 91 240 236 236 224 224 224 224 224 120 120 120 120 159 59 59 133 133
 133 133 133 187 63 63 63 63 91 91 91 91 6 6 2 224 224 224 224 224
 120 120 120 59 59 59 59 133 133 133 133 133 133 63 63 63 138 91 91 91
 6 6 6 2 2 2 2 149 149 149 149 149 59 59 59 59 133 133 133 133
 133 133 63 138 138 138 138 232 232 232 2 2 2 2 2 2 149 149 149 149
 149 59 59 59 59 133 133 133 133 133 133 17 17 17 17 232 232 232 232 232
 2 2 2 2 2 149 149 149 149 149 59 59 59 59 133 133 133 133 133 133
 17 17 17 17 17 232 232 232 232 2 2 2 2 2 149 149 149 149 149 59
 59 59 59 133 133 133 133 133 133 17 17 17 17 17 17 232 232 123 123 123
 2 2 2 149 149 149 149 149 8 8 8 8 32 32 32 32 32 32 17 17
 17 17 17 17 232 123 123 123 123 123 123 42 42 42 42 42 70 8 8 8
 32 32 32 32 32 32 32 17 17 17 17 17 17 123 123 123 123 123 123 123
 42 42 42 42 70 70 70 70 32 32 32 32 32 32 32 32 17 17 17 17
 17 17 103 103 123 123 123 123 123 42 42 42 70 70 70 70 70 32 32 32
 32 32 32 32 32 41 17 17 17 17 103 103 103 103 123 123 123 123 42 42
 70 70 70 70 70 70 15 15 32 32 32 32 32 41 41 41 41 172 172 103
 103 103 103 123 123 123 36 36 36 70 70 70 70 70 70 15 15 15 15 15
 15 41 41 41 41 41 172 172 235 103 103 103 84 84 84 36 36 36 70 70
 70 70 70 188 15 15 15 15 15 15 41 41 41 41 28 28 235 235 235 235
 103 84 84 84 84 212 212 212 70 70 188 188 188 188 15 15 15 15 15 41
 41 41 28 28 28 235 235 235 235 84 84 84 84 84 84 212 212 212 225 225
 225 188 188 188 188 15 15 15 15 157 157 28 28 28 235 235 235 235 84 84
 84 84 84 84 212 212 212 225 225 225 188 188 188 188 24 24 24 24 157 157
 157 28 235 235 235 235 235 84 84 84 84 84 84 84 212 212 225 225 225 188
 188 188 24 24 24 24 157 157 157 157 157 235 235 235 235 235 84 84 84 84
 84 84 84 212 212 225 225 188 188 188 24 24 24 24 24 157 157 157 157 157
 235 235 235 235 235 84 84 84 84 84 84 84 212 212 225 225 188 188 24 24
 24 24 24 24 203 157 174 174 174 67 67 67 235 235 124 84 84 84 84 90
 90 90 90 90 225 188 188 24 24 24 24 24 203 203 203 174 174 67 67 67
 67 67 124 124 124 124 90 90 90 90 90 90 90 197 197 197 24 151 151 151
 151 203 203 203 203 67 67 67 67 67 66 124 124 124 124 90 90 90 90 90
 90 90 197 197 197 197 151 151 151 151 203 203 203 203 67 67 67 67 66 66
 124 124 124 124 90 90 90 90 90 90 90 197 197 197 230 230 230 151 151 203
 203 203 187 187 67 66 66 66 66 66 124 124 124 90 90 90 90 90 90 90
 197 197 197 230 230 230 230 187 187 187 187 187 187 187 66 66 66 66 66 124
 124 124 90 90 90 90 90 90 90 197 197 230 230 230 230 230 187 187 187 187
 187 187 187 66 66 66 66 66 66 236 236 236 90 90 90 90 90 120 120 120
 159 230 230 230 187 187 187 187 187 187 187 187 66 66 66 66 66 66 236 236
 236 236 90 90 90 90 120 120 120 159 159 230 230 187 187 187 187 187 187 63
 63 63 66 66 66 66 66 236 236 236 236 236 90 90 120 120 120 120 120 159
 159 159 187 187 187 187 187 63 63 63 63 63 91 91 91 240 236 236 236 224
 224 224 224 120 120 120 120 120 159 159 159 133 187 187 187 187 63 63 63 63
 91 91 91 91 240 240 236 224 224 224 224 224 120 120 120 120 211 59 59 133
 133 133 133 133 63 63 63 63 63 91 91 91 91 240 240 2 224 224 224 224
 224 120 120 211 211 59 59 59 133 133 133 133 133 63 63 63 63 138 91 91
 91 91 2 2 2 2 2 2 149 149 149 149 149 59 59 59 59 133 133 133
 133 133 63 63 138 138 138 138 91 232 232 2 2 2 2 2 2 149 149 149
 149 149 59 59 59 59 133 133 133 133 133 133 138 138 138 138 138 232 232 232
 232 2 2 2 2 2 149 149 149 149 149 149 8 8 8 133 133 133 133 133
 133 17 17 17 17 17 232 232 232 232 2 2 2 2 2 149 149 149 149 149
 8 8 8 8 8 133 133 133 133 133 17 17 17 17 17 232 232 232 232 123
 123 2 2 2 149 149 149 149 149 8 8 8 8 8 8 32 133 133 112 17
 17 17 17 17 17 232 123 123 123 123 123 123 2 42 42 42 149 70 8 8
 8 8 8 32 32 32 112 112 17 17 17 17 17 17 103 123 123 123 123 123
 123 42 42 42 70 70 70 70 8 8 8 32 32 32 32 32 112 17 17 17
 17 17 17 103 103 123 123 123 123 123 42 42 42 70 70 70 70 245 245 245
 32 32 32 32 32 41 41 41 172 172 172 103 103 103 103 123 123 123 123 123
 42 70 70 70 70 70 245 245 15 15 15 15 15 41 41 41 41 172 172 172
 172 103 103 103 123 123 123 123 36 36 70 70 70 70 70 245 15 15 15 15
 15 15 41 41 41 41 41 172 172 172 103 103 103 84 84 84 84 84 36 70
 70 70 70 70 188 15 15 15 15 15 15 41 41 41 41 28 28 28 235 235
 235 103 84 84 84 84 84 212 212 70 70 188 188 188 188 15 15 15 15 15
 41 41 76 28 28 28 28 235 235 235 84 84 84 84 84 84 84 212 212 225
 225 225 188 188 188 188 15 15 15 15 157 157 28 28 28 235 235 235 235 84
 84 84 84 84 84 84 212 212 225 225 225 188 188 188 188 24 24 24 157 157
 157 157 157 235 235 235 235 235 84 84 84 84 84 84 84 212 212 225 225 225
 188 188 188 24 24 24 24 157 157 157 157 157 157 235 235 235 235 84 84 84
 84 84 84 84 212 212 225 225 188 188 188 24 24 24 24 24 157 157 157 157
 157 157 235 235 235 235 84 84 84 84 84 84 84 81 81 81 225 188 188 24
 24 24 24 24 24 157 157 174 174 174 174 67 67 235 235 124 84 84 84 84
 90 90 90 81 81 81 195 195 195 24 24 24 24 203 203 174 174 174 174 174
 67 67 66 124 124 124 124 90 90 90 90 90 90 81 195 195 195 195 151 151
 151 151 203 203 203 174 174 174 174 67 66 66 124 124 124 124 90 90 90 90
 90 90 197 197 197 197 195 151 151 151 151 203 203 203 187 174 174 66 66 66
 66 66 124 124 124 90 90 90 90 90 90 197 197 197 197 197 151 151 151 151
 203 203 203 187 187 66 66 66 66 66 66 124 124 124 90 90 90 90 90 90
 197 197 197 197 230 230 230 151 187 187 187 187 187 187 66 66 66 66 66 66
 66 124 124 90 90 90 90 90 90 90 197 197 197 230 230 230 230 187 187 187
 187 187 187 187 66 66 66 66 66 66 236 236 236 90 90 90 90 90 90 197
 197 197 230 230 230 187 187 187 187 187 187 187 63 66 66 66 66 66 66 236
 236 236 236 90 90 90 90 120 20 20 20 159 230 230 187 187 187 187 187 63
 63 63 63 66 66 66 66 240 236 236 236 236 236 90 241 241 120 20 20 20
 20 20 230 187 187 187 187 187 63 63 63 63 63 91 91 240 240 240 236 236
 224 224 224 224 120 120 211 211 211 211 211 133 133 187 187 187 63 63 63 63
 63 91 91 91 91 240 240 240 224 224 224 224 224 120 211 211 211 211 211 211
 133 133 133 133 133 63 63 63 63 63 91 91 91 91 240 240 240 2 224 224
 224 224 224 211 211 211 211 211 133 133 133 133 133 133 63 63 63 63 138 91
 91 91 91 240 2 2 2 2 2 149 149 149 149 211 211 211 59 59 133 133
 133 133 133 63 63 138 138 138 138 91 91 232 232 2 2 2 2 2 149 149
 149 149 149 211 8 59 133 133 133 133 133 133 63 138 138 138 138 138 232 232
 232 232 2 2 2 2 2 149 149 149 149 149 8 8 8 8 8 133 133 133
 133 63 138 138 138 138 138 232 232 232 232 232 2 2 2 2 149 149 149 149
 149 8 8 8 8 8 133 133 133 133 112 17 17 17 17 17 232 232 232 232
 232 123 2 2 2 149 149 149 44 44 8 8 8 8 8 8 133 112 112 112
 17 17 17 17 17 17 232 232 123 123 123 123 123 2 149 42 149 44 8 8
 8 8 8 8 8 32 112 112 112 17 17 17 17 17 17 123 123 123 123 123
 123 123 123 42 70 70 70 70 8 8 8 8 8 32 32 112 112 112 17 17
 17 17 17 17 103 103 123 123 123 123 123 123 42 70 70 70 70 70 245 245
 245 245 32 32 112 112 112 76 172 172 172 172 172 103 103 103 123 123 123 123
 123 70 70 70 70 70 70 245 245 245 15 15 15 15 76 76 76 76 172 172
 172 172 103 103 103 123 123 123 123 123 70 70 70 70 70 70 245 245 15 15
 15 15 15 76 76 76 76 172 172 172 172 103 103 103 84 84 84 84 84 61
 70 70 70 70 70 188 15 15 15 15 15 15 76 76 76 76 28 28 28 235
 235 235 103 84 84 84 84 84 212 212 70 70 188 188 188 188 15 15 15 15
 15 76 76 76 76 28 28 235 235 235 235 84 84 84 84 84 84 61 61 155
 155 155 188 188 188 188 188 15 15 15 15 157 157 157 157 28 235 235 235 235
 84 84 84 84 84 84 84 155 155 155 155 188 188 188 188 188 188 188 188 157
 157 157 157 157 157 235 235 235 235 84 84 84 84 84 84 84 155 155 155 155
 188 188 188 188 24 24 24 24 157 157 157 157 157 157 235 235 235 235 84 84
 84 84 84 84 84 155 155 155 155 188 188 188 24 24 24 24 24 157 157 157
 157 157 157 235 235 235 235 84 84 84 84 84 84 81 81 81 81 81 195 195
 195 24 24 24 24 24 157 157 174 174 174 174 174 67 235 126 126 126 126 84
 84 90 81 81 81 81 81 195 195 195 195 151 151 151 203 174 174 174 174 174
 174 174 66 66 66 126 126 126 90 90 90 90 140 81 81 81 195 195 195 151
 151 151 151 203 203 174 174 174 174 174 67 66 66 66 124 124 124 90 90 90
 90 90 90 197 197 197 195 195 151 151 151 151 203 203 203 174 174 174 66 66
 66 66 66 124 124 124 90 90 90 90 90 90 197 197 197 197 195 151 151 151
 151 203 203 203 187 187 66 66 66 66 66 66 66 124 124 90 90 90 90 90
 90 197 197 197 197 197 195 151 151 187 187 187 187 187 187 66 66 66 66 66
 66 66 124 124 73 90 90 90 90 90 197 197 197 197 197 230 230 230 187 187
 187 187 187 187 187 66 66 66 66 66 66 236 73 73 90 90 90 90 90 241
 202 202 202 230 230 230 187 187 187 187 187 187 63 63 66 66 66 66 66 66
 236 236 236 236 90 241 241 241 241 20 20 20 20 230 156 156 156 187 187 187
 63 63 63 63 66 66 66 66 240 240 236 236 236 241 241 241 241 241 20 20
 20 20 20 156 156 156 156 187 187 63 63 63 63 91 91 91 240 240 240 240
 240 224 224 241 241 241 241 211 211 211 211 211 156 156 156 156 187 63 63 63
 63 63 91 91 91 91 240 240 240 240 224 224 224 241 241 211 211 211 211 211
 211 156 156 156 156 63 63 63 63 63 63 91 91 91 91 240 240 240 240 224
 224 224 224 241 211 211 211 211 211 211 133 133 133 133 133 63 63 63 63 138
 91 91 91 216 216 240 2 2 2 2 149 149 149 149 211 211 211 211 211 133
 133 133 133 133 63 63 138 138 138 138 91 91 216 232 2 2 2 2 2 149
 149 149 149 149 211 211 8 8 133 133 133 133 133 63 138 138 138 138 138 232
 232 232 232 232 2 2 2 2 149 149 149 149 44 8 8 8 8 8 133 133
 133 133 63 138 138 138 138 138 232 232 232 232 232 2 2 2 2 149 149 149
 44 44 8 8 8 8 8 8 133 133 112 112 17 17 17 17 17 232 232 232
 232 232 123 2 2 2 149 149 44 44 44 8 8 8 8 8 8 112 112 112
 112 17 17 17 17 17 232 232 232 232 123 123 123 123 2 149 44 44 44 44
 8 8 8 8 8 8 112 112 112 112 17 17 17 17 17 17 232 123 123 123
 123 123 123 123 121 44 44 44 44 8 8 8 8 8 8 112 112 112 112 17
 17 17 17 172 172 103 103 123 123 123 123 123 123 121 70 70 70 70 70 245
 245 245 245 245 112 112 112 112 76 76 172 172 172 172 103 103 103 123 123 123
 123 61 61 70 70 70 70 70 245 245 245 245 15 15 112 112 76 76 76 172
 172 172 172 103 103 33 123 123 123 61 61 61 61 70 70 70 70 245 245 245
 15 15 15 15 76 76 76 76 76 172 172 172 33 33 33 33 84 84 84 61
 61 61 61 70 70 70 245 245 15 15 15 15 15 76 76 76 76 76 172 172
 172 33 33 33 84 84 84 84 61 61 61 61 155 155 188 188 188 15 15 15
 15 15 76 76 76 76 76 172 172 235 33 33 33 84 84 84 84 61 61 61
 155 155 155 101 101 188 188 188 15 15 15 157 157 157 157 157 157 235 235 235
 235 33 84 84 84 84 61 61 155 155 155 155 101 101 188 188 188 188 188 188
 157 157 157 157 157 157 235 235 235 235 84 84 84 84 84 84 61 155 155 155
 155 101 101 188 188 188 24 24 157 157 157 157 157 157 157 235 235 235 235 84
 84 84 84 84 84 81 81 81 81 81 101 101 188 24 24 24 24 24 157 157
 157 157 157 157 157 235 235 126 126 126 126 84 84 84 81 81 81 81 81 81
 195 195 195 195 24 24 157 157 157 174 174 174 174 174 174 126 126 126 126 126
 126 125 125 81 81 81 81 81 195 195 195 195 195 151 151 151 174 174 174 174
 174 174 174 174 66 126 126 126 126 126 90 140 140 140 81 81 81 195 195 195
 195 151 151 151 151 174 174 174 174 174 174 174 66 66 66 126 126 126 90 90
 140 140 140 140 81 202 195 195 195 195 151 151 151 203 203 174 174 174 174 66
 66 66 66 66 66 126 97 90 90 90 140 140 140 202 202 197 195 195 195 151
 151 151 151 203 203 119 119 119 66 66 66 66 66 66 124 73 73 90 90 90
 90 90 202 202 202 202 195 195 195 195 151 187 187 187 187 119 119 66 66 66
 66 66 66 124 73 73 73 90 90 90 90 202 202 202 202 202 195 195 195 187
 187 187 187 187 187 119 66 66 66 66 66 66 66 73 73 73 90 241 241 241
 241 202 202 202 202 230 156 156 156 156 187 187 187 63 63 63 66 66 66 66
 66 236 73 73 73 241 241 241 241 241 94 94 94 202 156 156 156 156 156 156
 187 63 63 63 63 63 66 66 66 240 240 73 73 241 241 241 241 241 241 94
 20 20 20 156 156 156 156 156 156 187 63 63 63 63 63 91 104 216 240 240
 240 240 241 241 241 241 241 241 211 211 211 211 156 156 156 156 156 156 63 63
 63 63 63 91 91 91 216 240 240 240 240 241 241 241 241 241 241 211 211 211
 211 211 156 156 156 156 64 63 63 63 63 63 91 91 91 216 216 240 240 240
 224 224 241 241 241 241 211 211 211 211 211 133 133 64 64 64 63 63 63 63
 138 91 91 216 216 216 240 2 2 2 2 149 149 149 149 211 211 211 211 8
 133 133 64 64 64 64 63 138 138 138 138 91 216 216 216 2 2 2 2 2
 149 149 149 44 44 211 8 8 8 133 133 133 64 64 64 138 138 138 138 138
 232 232 232 232 232 2 2 2 2 149 149 44 44 44 44 8 8 8 8 133
 133 64 64 64 138 138 138 138 138 232 232 232 232 232 232 2 2 2 149 44
 44 44 44 44 8 8 8 8 8 112 112 112 112 112 138 138 138 138 232 232
 232 232 232 232 2 2 161 149 44 44 44 44 44 8 8 8 8 8 112 112
 112 112 112 17 17 17 17 232 232 232 232 232 123 123 123 161 44 44 44 44
 44 8 8 8 8 8 8 112 112 112 112 112 17 17 17 17 17 232 232 123
 123 123 123 123 121 121 121 44 44 44 8 8 8 8 8 112 112 112 112 112
 112 17 172 172 172 172 103 103 123 123 123 123 123 121 121 121 121 70 70 70
 245 245 245 245 112 112 112 112 112 76 76 172 172 172 172 33 33 33 123 123
 123 61 61 61 121 121 70 70 245 245 245 245 245 245 112 112 112 112 76 76
 172 172 172 172 33 33 33 33 33 61 61 61 61 61 61 61 70 70 245 245
 245 245 15 15 112 112 76 76 76 76 172 172 172 33 33 33 33 33 61 61
 61 61 61 61 61 61 61 245 245 245 15 15 15 15 76 76 76 76 76 172
 172 33 33 33 33 33 84 84 61 61 61 61 61 61 155 101 101 188 15 15
 15 15 15 76 76 76 76 76 172 172 33 33 33 33 111 111 111 61 61 61
 61 155 155 155 101 101 101 215 215 215 215 215 158 158 157 157 157 157 235 235
 33 33 33 111 111 111 111 61 61 155 155 155 155 101 101 101 215 215 215 215
 215 158 158 157 157 157 157 235 235 235 33 33 111 111 111 111 61 61 155 155
 155 155 101 101 101 215 215 215 215 215 157 157 157 157 157 157 235 235 235 126
 126 126 111 111 111 125 81 81 81 81 81 101 101 101 215 215 215 215 157 157
 157 157 157 157 157 157 190 126 126 126 126 126 126 125 125 125 81 81 81 81
 81 195 195 195 195 195 195 157 157 157 174 174 174 174 174 126 126 126 126 126
 126 126 125 125 125 81 81 81 81 81 195 195 195 195 195 195 195 174 174 174
 174 174 174 174 126 126 126 126 126 126 126 125 125 140 140 81 81 81 195 195
 195 195 195 195 151 151 100 174 174 174 119 119 207 207 126 126 126 126 126 126
 140 140 140 140 140 81 202 195 195 195 195 195 195 151 100 100 174 119 119 119
 119 207 207 207 126 126 126 97 97 90 140 140 140 140 202 202 202 195 195 195
 195 195 151 151 100 119 119 119 119 119 207 207 207 66 66 126 73 73 73 140
 140 140 202 202 202 202 202 195 195 195 195 195 187 187 119 119 119 119 119 207
 207 66 66 66 73 73 73 73 241 241 241 241 202 202 202 202 202 195 195 195
 156 187 187 187 119 119 119 139 66 66 66 66 66 73 73 73 73 241 241 241
 241 241 202 202 202 202 195 156 156 156 156 68 68 139 63 63 63 104 104 104
 104 104 73 73 73 73 241 241 241 241 241 94 94 94 202 156 156 156 156 156
 68 68 63 63 63 63 104 104 104 104 104 240 73 73 241 241 241 241 241 241
 94 94 94 94 156 156 156 156 156 68 68 63 63 63 63 104 104 104 104 104
 240 240 240 241 241 241 241 241 241 94 94 94 94 156 156 156 156 156 156 64
 63 63 63 63 104 104 104 216 216 240 240 240 241 241 241 241 241 241 94 211
 211 211 211 156 156 156 156 64 64 63 63 63 63 91 91 216 216 216 39 240
 240 241 241 241 241 241 241 180 180 180 180 152 152 156 64 64 64 64 64 63
 63 138 91 91 216 216 216 39 39 2 2 243 243 243 243 44 180 180 180 180
 180 152 64 64 64 64 64 64 138 138 138 138 39 216 216 216 39 2 2 2
 243 243 243 243 44 44 180 180 8 8 147 64 64 64 64 64 64 138 138 138
 138 232 216 216 216 232 2 2 161 243 243 243 44 44 44 44 8 8 8 147
 147 64 64 64 64 138 138 138 138 138 232 232 232 232 232 232 161 161 161 243
 44 44 44 44 44 8 8 8 8 147 147 64 64 64 112 194 194 194 194 232
 232 232 232 232 134 161 161 161 161 44 44 44 44 44 8 8 8 8 8 112
 112 112 112 112 17 194 194 194 232 232 232 134 134 134 134 161 161 161 44 44
 44 44 44 8 8 8 8 112 112 112 112 112 112 17 17 194 17 160 160 160
 134 134 134 134 161 121 121 121 121 44 44 44 8 8 8 147 112 112 112 112
 112 112 112 172 172 172 172 160 160 134 134 134 134 121 121 121 121 121 121 70
 44 245 245 245 192 112 112 112 112 112 76 76 172 172 172 172 33 33 33 134
 134 134 61 61 121 121 121 121 70 245 245 245 245 245 192 112 112 112 112 76
 76 172 172 172 33 33 33 33 33 33 61 61 61 61 61 61 61 61 61 245
 245 245 192 192 112 112 112 76 76 76 76 172 172 33 33 33 33 33 33 61
 61 61 61 61 61 61 61 61 191 191 191 191 215 15 112 76 76 76 76 76
 172 172 33 33 33 33 33 33 61 61 61 61 61 61 61 155 101 101 191 191
 215 215 215 193 76 76 158 158 158 158 172 33 33 33 33 111 111 111 111 61
 61 61 61 155 155 101 101 215 215 215 215 215 215 158 158 158 158 158 158 235
 33 33 33 33 111 111 111 111 61 61 155 155 155 155 101 101 215 215 215 215
 215 215 158 158 158 158 158 158 190 190 190 33 111 111 111 111 111 111 61 155
 155 155 155 101 101 215 215 215 215 215 215 158 158 158 158 157 157 190 190 190
 126 126 111 111 111 111 125 125 81 81 81 81 101 101 215 215 215 215 215 215
 158 158 157 157 157 157 190 190 126 126 126 126 126 126 125 125 125 81 81 81
 81 81 195 195 195 195 214 214 100 100 100 174 174 174 174 190 126 126 126 126
 126 126 126 125 125 125 81 81 81 81 195 195 195 195 195 214 214 100 100 100
 174 174 119 119 207 126 126 126 126 126 126 126 125 125 125 140 81 81 81 195
 195 195 195 195 195 195 100 100 100 119 119 119 119 207 207 207 126 126 97 97
 97 125 125 140 140 140 81 202 195 195 195 195 195 195 195 100 100 100 119 119
 119 119 207 207 207 126 97 97 97 97 125 140 140 140 140 202 202 202 195 195
 195 195 195 195 100 100 119 119 119 119 119 207 207 207 207 97 97 97 73 73
 73 140 140 140 202 202 202 202 195 195 195 195 195 100 119 119 119 119 119 119
 207 207 207 207 207 97 73 73 73 73 241 241 241 202 202 202 202 202 195 195
 195 156 68 119 119 139 139 139 139 207 207 207 66 66 85 73 73 73 241 241
 241 241 241 202 202 202 202 195 156 156 156 68 68 68 139 139 139 139 104 104
 104 104 104 85 85 73 73 241 241 241 241 241 94 94 94 202 156 156 156 156
 68 68 68 68 139 139 139 104 104 104 104 104 85 85 85 241 241 241 241 241
 241 94 94 94 94 156 156 156 156 156 68 68 64 139 63 63 104 104 104 104
 104 104 85 85 241 241 241 241 241 241 94 94 94 94 156 156 156 156 156 68
 64 64 64 63 63 104 104 104 104 104 39 240 240 241 241 241 241 241 241 180
 180 180 180 152 152 152 152 64 64 64 64 64 63 104 104 39 39 216 39 39
 39 39 241 241 241 241 241 241 180 180 180 180 152 152 152 64 64 64 64 64
 64 64 217 104 39 39 216 39 39 39 39 243 243 243 243 243 243 180 180 180
 180 180 152 64 64 64 64 64 64 64 138 138 138 39 39 216 39 39 39 39
 243 243 243 243 243 243 180 180 180 180 147 147 64 64 64 64 64 64 64 194
 194 194 39 39 216 39 39 39 161 161 243 243 243 243 44 44 44 180 147 147
 147 147 64 64 64 64 64 194 194 194 194 194 232 216 232 232 161 161 161 161
 243 243 243 44 44 44 147 147 147 147 147 147 64 64 64 194 194 194 194 194
 194 160 160 134 134 134 161 161 161 161 44 44 44 44 44 147 147 147 147 147
 147 112 112 112 112 194 194 194 194 194 160 160 134 134 134 134 161 161 161 121
 44 44 44 44 147 147 147 147 147 112 112 112 112 112 112 194 194 194 160 160
 160 134 134 134 134 161 161 121 121 121 121 44 44 8 147 147 147 147 112 112
 112 112 112 112 56 194 168 168 160 160 134 134 134 134 161 121 121 121 121 121
 44 44 245 245 192 192 192 112 112 112 112 112 56 56 172 168 168 33 33 134
 134 134 134 61 61 121 121 121 121 121 191 191 191 191 192 192 112 112 112 112
 56 56 56 56 168 33 33 33 33 33 134 61 61 61 61 61 61 61 61 191
 191 191 191 192 192 193 112 112 112 76 56 56 172 172 33 33 33 33 33 33
 61 61 61 61 61 61 61 61 191 191 191 191 191 215 193 193 193 193 76 76
 76 172 172 33 33 33 33 33 111 111 61 61 61 61 61 61 155 101 191 191
 191 215 215 215 193 193 158 158 158 158 158 158 33 33 33 33 111 111 111 111
 61 61 61 61 155 155 189 189 215 215 215 215 215 215 158 158 158 158 158 158
 190 190 190 33 111 111 111 111 111 111 61 61 155 155 155 189 189 215 215 215
 215 215 215 158 158 158 158 158 158 190 190 190 190 111 111 111 111 111 111 61
 155 155 155 155 189 189 215 215 215 215 215 215 158 158 158 158 158 190 190 190
 190 190 190 111 111 111 111 125 125 125 155 155 155 189 189 215 215 215 215 215
 215 158 158 158 158 158 190 190 190 190 190 126 126 126 125 125 125 125 125 81
 81 81 81 195 195 214 214 214 214 100 100 100 100 100 178 190 190 190 190 126
 126 126 126 125 125 125 125 125 81 81 81 195 195 195 214 214 214 214 100 100
 100 100 178 178 119 190 190 190 126 126 126 126 125 125 125 125 125 81 81 81
 195 195 195 195 214 214 214 100 100 100 119 119 119 119 207 207 207 126 97 97
 97 97 125 125 125 125 140 81 195 195 195 195 195 195 214 100 100 100 100 119
 119 119 119 207 207 207 114 97 97 97 97 125 125 125 140 140 202 202 202 195
 195 195 195 195 100 100 100 119 119 119 119 119 207 207 207 114 114 97 97 97
 73 125 125 140 202 202 202 202 202 195 195 195 195 100 100 100 119 119 119 119
 119 207 207 207 114 114 85 85 73 73 73 241 241 241 202 202 202 202 195 195
 195 195 156 68 119 119 139 139 139 139 207 207 207 114 114 85 85 85 73 241
 241 241 241 241 202 202 202 202 195 156 156 156 68 68 139 139 139 139 139 104
 104 104 4 4 85 85 85 85 241 241 241 241 241 94 94 94 202 156 156 156
 156 68 68 68 139 139 139 139 104 104 104 104 104 85 85 85 85 241 241 241
 241 241 94 94 94 94 152 152 156 156 68 68 68 64 139 139 139 104 104 104
 104 104 104 85 85 85 241 241 241 241 241 94 94 94 152 152 152 152 152 64
 64 64 64 64 64 104 104 104 104 104 104 39 39 85 85 241 241 241 241 241
 180 180 180 180 152 152 152 152 64 64 64 64 64 64 217 217 39 39 39 39
 39 39 39 85 241 241 241 241 180 180 180 180 180 152 152 152 152 64 64 64
 64 64 64 217 217 39 39 39 39 39 39 39 243 243 243 243 243 243 180 180
 180 180 152 152 152 64 64 64 64 64 64 64 217 217 39 39 39 39 39 39
 39 243 243 243 243 243 243 79 180 180 180 147 147 64 64 64 64 64 64 64
 194 194 194 39 39 39 39 39 39 161 161 243 243 243 243 243 79 180 180 147
 147 147 147 64 64 64 64 64 194 194 194 194 194 26 26 26 26 161 161 161
 161 243 243 243 44 44 44 147 147 147 147 147 147 64 64 64 194 194 194 194
 194 194 26 26 134 134 134 161 161 161 161 243 44 44 44 44 147 147 147 147
 147 147 166 166 112 112 194 194 194 194 194 160 160 134 134 134 134 161 161 161
 161 44 44 44 44 147 147 147 147 147 166 166 166 112 112 194 194 194 194 168
 160 160 134 134 134 134 161 161 121 121 121 121 44 44 147 147 147 147 147 166
 166 112 112 56 56 56 56 168 168 160 160 134 134 134 134 161 121 121 121 121
 121 121 191 191 147 192 192 192 192 112 112 112 56 56 56 56 168 168 168 160
 134 134 134 134 61 61 121 121 121 121 23 191 191 191 192 192 192 192 112 112
 112 56 56 56 56 168 168 168 33 33 33 134 61 61 61 61 61 61 61 23
 191 191 191 191 192 192 193 193 193 56 56 56 56 56 168 168 33 33 33 33
 111 61 61 61 61 61 61 61 23 191 191 191 191 191 193 193 193 193 193 158
 158 56 56 168 33 33 33 33 33 111 111 111 61 61 61 61 61 61 191 191
 191 191 215 215 193 193 193 158 158 158 158 158 60 60 60 33 33 111 111 111
 75 75 61 61 61 23 189 189 189 189 215 215 215 193 193 158 158 158 158 158
 158 190 190 190 190 111 111 111 111 75 75 75 61 155 189 189 189 189 189 215
 215 215 215 116 158 158 158 158 158 190 190 190 190 190 190 111 111 111 75 75
 75 155 155 189 189 189 189 215 215 215 215 215 116 158 158 158 158 158 190 190
 190 190 190 190 111 111 111 75 75 125 125 89 89 189 189 189 215 215 215 214
 214 214 158 158 158 158 158 190 190 190 190 190 190 126 126 125 125 125 125 125
 89 89 89 89 214 214 214 214 214 214 100 100 100 100 178 178 190 190 190 190
 190 126 126 126 125 125 125 125 125 89 89 89 89 214 214 214 214 214 214 100
 100 100 100 178 178 178 190 190 190 190 126 97 97 125 125 125 125 125 89 89
 89 195 195 214 214 214 214 100 100 100 100 178 178 178 178 207 207 114 114 97
 97 97 125 125 125 125 125 89 89 89 195 195 195 214 214 214 100 100 100 100
 119 119 119 119 207 207 114 114 114 97 97 97 125 125 125 125 89 89 202 195
 195 195 195 195 195 100 100 100 100 119 119 119 119 207 207 207 114 114 114 97
 97 125 125 125 125 202 202 202 195 195 195 195 195 195 100 100 100 119 139 139
 139 139 207 207 114 114 114 114 85 85 85 47 47 47 47 202 202 202 202 195
 195 195 113 113 100 100 119 139 139 139 139 207 207 114 114 114 85 85 85 85
 47 47 47 47 47 141 202 202 202 195 113 113 156 68 68 139 139 139 139 139
 139 4 4 4 4 85 85 85 85 47 47 47 47 47 47 45 45 45 152 152
 156 156 68 68 139 139 139 139 139 104 104 4 4 4 85 85 85 85 47 47
 47 47 47 47 94 94 94 152 152 152 152 68 68 139 139 139 139 139 104 104
 104 104 4 85 85 85 85 47 47 47 47 47 47 94 180 152 152 152 152 152
 152 64 64 64 139 139 217 217 104 104 104 104 39 85 85 85 47 47 47 47
 47 180 180 180 180 152 152 152 152 152 64 64 64 64 217 217 217 217 39 39
 39 39 39 39 165 165 165 47 47 47 180 180 180 180 152 152 152 152 64 64
 64 64 64 64 217 217 217 39 39 39 39 39 165 165 165 165 243 243 79 180
 180 180 180 152 152 152 64 64 64 64 64 64 217 217 217 217 39 39 39 39
 39 165 165 165 243 243 243 79 79 180 180 180 147 147 147 64 64 64 64 64
 64 194 194 217 217 39 39 39 39 39 165 165 165 243 243 243 79 79 79 147
 147 147 147 147 147 64 64 64 64 194 194 194 194 26 26 26 26 26 26 161
 161 161 165 243 243 79 79 79 147 147 147 147 147 147 64 64 64 194 194 194
 194 194 26 26 26 26 134 134 161 161 161 161 165 243 79 79 44 147 147 147
 147 147 166 166 166 64 194 194 194 194 194 26 26 26 134 134 134 134 161 161
 161 161 44 44 44 44 147 147 147 147 147 166 166 166 166 56 56 56 194 168
 168 160 160 134 134 134 134 161 161 161 121 121 121 44 147 147 147 147 147 147
 166 166 166 112 56 56 56 56 168 168 168 160 134 134 134 134 161 161 121 121
 121 121 121 147 147 147 192 192 192 192 112 112 56 56 56 56 56 168 168 168
 168 134 134 134 134 61 61 121 121 121 23 23 23 191 191 192 192 192 192 193
 193 56 56 56 56 56 168 168 168 168 33 134 134 134 61 61 61 61 23 23
 23 23 191 191 191 192 192 193 193 193 56 56 56 56 56 168 168 168 168 33
 33 75 75 61 61 61 61 23 23 23 23 191 191 191 193 193 193 193 193 56
 158 158 56 56 168 168 33 33 33 33 75 75 75 61 61 61 23 23 23 189
 191 191 191 215 193 193 193 193 158 158 158 158 60 60 60 60 60 60 75 75
 75 75 75 75 23 23 23 189 189 189 189 215 215 193 193 116 116 158 158 158
 158 60 60 60 190 190 190 111 75 75 75 75 75 23 23 189 189 189 189 189
 215 215 215 116 116 116 158 158 158 158 190 190 190 190 190 190 111 75 75 75
 75 75 75 189 189 189 189 189 189 215 215 215 116 116 116 158 158 158 158 190
 190 190 190 190 190 190 75 75 75 75 75 89 89 89 189 189 189 214 214 214
 214 214 116 116 158 158 158 190 190 190 190 190 190 190 190 190 125 125 125 125
 89 89 89 89 89 214 214 214 214 214 214 214 100 100 100 178 178 190 190 190
 190 190 190 190 126 125 125 125 125 125 89 89 89 89 214 214 214 214 214 214
 100 100 100 178 178 178 178 190 190 190 190 190 97 97 125 125 125 125 125 89
 89 89 89 214 214 214 214 214 100 100 100 100 178 178 178 178 190 114 114 114
 114 97 97 125 125 125 125 125 89 89 89 89 214 214 214 214 214 100 100 100
 100 178 178 178 178 207 114 114 114 114 114 97 125 125 125 125 125 89 89 89
 195 195 195 195 195 100 100 100 100 100 119 119 119 231 207 114 114 114 114 114
 97 97 125 125 125 125 78 141 141 141 195 195 195 195 100 100 100 100 100 139
 139 139 139 207 114 114 114 114 114 85 85 85 47 47 47 47 141 141 141 141
 141 195 113 113 113 113 100 139 139 139 139 139 207 114 114 114 114 85 85 85
 85 47 47 47 47 47 141 141 141 141 113 113 113 113 113 113 139 139 139 139
 139 139 4 4 4 4 85 85 85 85 47 47 47 47 47 45 45 45 45 113