# vtk DataFile Version 2.0
Data set from ImportExport Version 6.5.171.b0b162591
ASCII

DATASET RECTILINEAR_GRID
DIMENSIONS 30 30 30
X_COORDINATES 30 float
-1.250000 1.250000 3.750000 6.250000 8.750000 11.250000 13.750000 16.250000 18.750000 21.250000 23.750000 26.250000 28.750000 31.250000 33.750000 36.250000 38.750000 41.250000 43.750000 46.250000 48.750000 
51.250000 53.750000 56.250000 58.750000 61.250000 63.750000 66.250000 68.750000 71.250000 
Y_COORDINATES 30 float
-1.250000 1.250000 3.750000 6.250000 8.750000 11.250000 13.750000 16.250000 18.750000 21.250000 23.750000 26.250000 28.750000 31.250000 33.750000 36.250000 38.750000 41.250000 43.750000 46.250000 48.750000 
51.250000 53.750000 56.250000 58.750000 61.250000 63.750000 66.250000 68.750000 71.250000 
Z_COORDINATES 30 float
-1.250000 1.250000 3.750000 6.250000 8.750000 11.250000 13.750000 16.250000 18.750000 21.250000 23.750000 26.250000 28.750000 31.250000 33.750000 36.250000 38.750000 41.250000 43.750000 46.250000 48.750000 
51.250000 53.750000 56.250000 58.750000 61.250000 63.750000 66.250000 68.750000 71.250000 
CELL_DATA 24389
SCALARS FeatureIds int 1
LOOKUP_TABLE default
 39 39 39 39 39 21 21 21 21 21 21 21 90 90 90 90 90 90 135 135
 135 87 118 118 118 118 118 118 118 39 39 39 39 39 21 21 21 21 21 21
 21 90 90 90 90 90 90 90 135 87 87 118 118 118 118 118 118 118 39 39
 39 39 39 21 21 21 21 21 21 225 90 90 90 90 90 90 90 92 92 92
 111 118 118 118 118 104 104 104 39 30 30 39 21 21 21 21 21 225 225 225
 9 9 9 90 90 90 92 92 111 111 111 111 114 104 104 104 104 230 230 230
 230 230 21 21 21 21 225 225 225 9 9 9 9 9 9 111 111 111 111 111
 111 114 104 104 104 104 230 230 230 230 230 230 21 21 225 225 225 132 132 9
 9 9 9 9 111 111 111 111 111 111 114 114 104 104 14 230 230 230 230 230
 230 230 134 225 225 225 132 132 132 132 9 9 9 111 111 111 111 111 111 114
 114 104 104 14 14 230 230 230 230 230 230 134 225 225 132 132 132 132 132 132
 132 145 145 88 88 88 88 88 114 114 14 14 14 14 14 230 230 230 230 230
 134 134 225 132 132 132 132 132 132 145 145 145 88 88 88 88 88 88 114 14
 14 14 14 14 14 230 230 230 230 134 134 207 132 132 132 132 132 132 145 145
 145 88 88 88 88 88 88 88 14 14 14 14 14 14 14 230 215 215 215 207
 207 207 207 132 132 132 132 125 125 125 122 122 88 88 88 88 71 71 14 14
 14 14 14 14 215 215 215 215 207 207 207 207 207 132 132 125 125 125 125 125
 126 126 126 126 71 71 71 71 71 14 14 14 14 215 215 215 215 207 207 207
 207 207 29 29 29 125 125 125 125 126 126 126 126 71 71 71 71 71 14 14
 175 175 175 50 50 50 207 207 207 207 29 29 29 29 29 125 125 222 222 97
 126 97 71 71 71 71 71 175 175 175 175 175 28 28 28 226 226 226 226 29
 29 29 29 29 29 222 222 222 222 97 97 71 71 71 71 71 175 175 175 175
 175 175 28 28 226 226 226 226 29 29 29 29 29 29 222 222 222 222 222 97
 71 71 71 71 175 175 175 175 175 175 28 28 155 226 226 226 226 29 29 29
 29 29 29 222 222 222 222 222 222 45 45 45 45 119 119 175 175 175 175 28
 155 155 155 226 226 226 151 151 151 151 151 151 222 222 222 222 222 45 45 45
 45 119 119 119 119 175 175 152 152 152 155 155 155 213 213 213 151 151 151 151
 43 43 222 222 222 222 45 45 45 119 119 119 119 233 152 152 152 152 152 152
 155 213 213 213 213 213 213 151 43 43 43 43 43 43 43 45 45 94 94 119
 119 119 119 152 152 152 152 152 152 213 213 213 213 213 213 213 213 43 43 43
 43 43 43 43 91 91 119 119 119 119 119 119 152 152 152 152 152 152 213 213
 213 213 213 213 213 213 43 43 43 43 43 43 43 91 91 119 119 119 119 119
 119 152 152 152 152 152 152 213 213 213 213 213 213 213 213 43 43 43 43 43
 43 43 23 91 91 119 119 119 119 140 140 140 140 140 152 152 217 217 217 213
 213 213 213 213 43 43 43 43 43 43 23 23 23 23 91 119 22 22 140 140
 140 120 120 120 217 217 217 217 217 213 213 213 219 43 43 43 43 43 43 23
 23 23 23 23 119 22 22 22 140 120 120 120 120 217 217 217 217 217 217 219
 219 219 219 135 135 135 135 23 23 23 23 23 23 22 22 22 22 22 120 120
 120 120 217 217 217 217 217 219 219 219 219 219 135 135 135 135 135 23 23 23
 23 23 22 22 22 22 22 120 120 21 21 21 217 217 217 217 219 219 219 219
 219 135 135 135 135 135 200 200 200 200 200 22 22 22 39 39 39 21 21 21
 21 21 217 217 217 219 219 219 219 219 135 135 135 135 135 118 118 118 118 200
 22 22 22 39 39 39 21 21 21 21 21 21 21 90 90 90 90 90 90 135
 135 135 87 87 118 118 118 118 118 22 22 39 39 39 39 21 21 21 21 21
 21 21 90 90 90 90 90 90 135 135 87 87 87 87 118 118 118 118 118 39
 39 39 39 39 21 21 21 21 21 21 225 90 90 90 90 90 90 90 92 92
 92 87 87 118 118 118 118 104 104 39 39 39 39 21 21 21 21 21 225 225
 225 90 90 90 90 90 90 92 92 92 92 111 111 114 114 104 104 104 230 230
 230 230 21 21 21 21 21 225 225 132 132 9 9 9 90 90 92 92 116 111
 111 111 114 114 104 104 104 230 230 230 230 230 230 21 134 134 134 132 132 132
 132 132 9 9 116 116 116 116 111 111 111 114 114 104 104 14 230 230 230 230
 230 230 134 134 134 134 132 132 132 132 132 132 132 116 116 116 116 111 111 114
 114 114 104 104 14 14 230 230 230 230 230 134 134 134 134 132 132 132 132 132
 132 132 145 145 86 86 88 88 88 114 114 14 14 14 14 14 230 230 230 230
 134 134 134 134 132 132 132 132 132 132 145 145 145 145 88 88 88 88 122 114
 14 14 14 14 14 14 230 230 230 134 134 134 134 132 132 132 132 132 132 145
 145 145 145 122 122 88 122 122 122 14 14 14 14 14 14 14 230 215 215 215
 134 207 207 132 132 132 132 125 125 125 125 125 122 88 88 88 88 71 14 14
 14 14 14 14 14 215 215 215 215 215 207 207 207 132 132 132 125 125 125 125
 125 126 126 126 126 88 71 71 14 14 14 14 14 14 215 215 215 215 215 226
 226 226 226 29 29 125 125 125 125 125 126 126 126 126 71 71 71 71 71 14
 14 14 175 50 50 50 50 226 226 226 226 226 29 29 29 52 125 125 222 222
 126 126 126 71 71 71 71 71 14 175 175 175 28 28 28 28 226 226 226 226
 226 29 29 29 29 222 222 222 222 222 222 97 71 71 71 71 45 175 175 175
 175 28 28 28 28 226 226 226 226 226 29 29 29 29 222 222 222 222 222 222
 222 45 45 45 45 45 45 175 175 175 28 28 28 155 155 226 226 226 226 151
 151 151 151 151 222 222 222 222 222 222 45 45 45 45 45 45 119 175 175 28
 28 155 155 155 155 226 226 151 151 151 151 151 151 222 222 222 222 222 45 45
 45 45 45 119 119 119 119 152 152 152 155 155 155 155 213 213 213 151 151 151
 151 151 222 222 222 222 222 45 45 45 45 45 119 119 119 152 152 152 152 152
 155 155 213 213 213 213 213 213 213 43 43 43 43 43 43 43 45 45 45 119
 119 119 119 119 152 152 152 152 152 152 213 213 213 213 213 213 213 213 43 43
 43 43 43 43 91 91 91 91 91 119 119 119 119 152 152 152 152 152 152 213
 213 213 213 213 213 213 213 43 43 43 43 43 43 91 91 91 91 91 119 119
 119 119 152 152 152 152 152 152 213 213 213 213 213 213 213 213 43 43 43 43
 43 43 91 91 91 91 91 119 119 119 119 152 152 152 152 152 152 217 217 217
 213 213 213 213 213 43 43 43 43 43 43 23 23 91 91 91 119 22 22 22
 140 120 120 120 120 217 217 217 217 217 217 213 213 219 219 135 135 135 43 43
 23 23 23 23 91 119 22 22 22 22 120 120 120 120 217 217 217 217 217 217
 219 219 219 219 135 135 135 135 135 200 200 200 200 200 22 22 22 22 22 120
 120 120 120 217 217 217 217 217 217 219 219 219 219 135 135 135 135 135 200 200
 200 200 200 22 22 22 22 22 120 120 21 21 21 217 217 217 217 219 219 219
 219 219 135 135 135 135 135 200 200 200 200 200 22 22 22 22 39 39 21 21
 21 21 21 217 217 217 219 219 219 219 219 135 135 135 135 135 200 200 200 200
 200 22 22 22 22 39 39 21 21 21 21 21 21 21 90 90 90 90 90 90
 135 87 87 87 87 87 118 118 118 200 22 22 22 39 39 39 21 21 21 21
 21 21 21 90 90 90 90 90 90 90 87 87 87 87 87 118 118 118 118 22
 22 39 39 39 39 21 21 21 21 21 21 21 90 90 90 90 90 90 90 92
 92 92 87 87 118 118 118 118 118 104 39 39 39 39 21 21 21 21 21 21
 181 181 90 90 90 90 90 92 92 92 92 92 87 111 118 118 118 104 104 230
 230 230 230 230 21 21 21 21 134 132 132 132 9 9 90 90 92 92 92 116
 116 111 111 114 114 104 104 104 230 230 230 230 230 230 134 134 134 134 132 132
 132 132 132 132 116 116 116 116 116 116 111 111 114 114 104 104 14 230 230 230
 230 230 230 134 134 134 134 132 132 132 132 132 132 132 116 116 116 116 116 111
 111 114 114 104 104 14 14 230 230 230 230 230 134 134 134 134 132 132 132 132
 132 132 145 145 145 86 86 86 88 88 114 114 14 14 14 14 14 230 230 230
 230 134 134 134 134 134 132 132 132 132 132 145 145 145 145 86 88 88 88 122
 122 14 14 14 14 14 14 230 230 215 215 134 134 134 134 132 132 132 132 132
 145 145 145 145 88 88 88 88 88 88 14 14 14 14 14 14 14 215 215 215
 215 215 134 134 132 132 132 132 125 125 125 125 125 125 88 88 88 88 88 14
 14 14 14 14 14 14 215 215 215 215 215 215 226 226 132 132 125 125 125 125
 125 125 125 126 126 126 88 71 14 14 14 14 14 14 14 215 215 215 215 215
 226 226 226 226 226 52 125 125 125 125 125 125 126 126 126 88 71 71 71 14
 14 14 14 50 50 50 50 50 226 226 226 226 226 226 52 52 52 125 125 125
 222 126 126 126 126 71 71 71 45 98 98 98 28 28 28 28 28 226 226 226
 226 226 226 52 52 52 52 222 222 222 222 222 126 45 45 45 45 45 45 98
 98 28 28 28 28 28 226 226 226 226 226 226 52 52 52 52 222 222 222 222
 222 222 45 45 45 45 45 45 98 98 28 28 28 28 155 155 226 226 226 226
 151 151 151 52 52 222 222 222 222 222 45 45 45 45 45 45 45 119 119 28
 28 28 155 155 155 155 226 226 226 151 151 151 151 52 222 222 222 222 45 45
 45 45 45 45 119 119 119 119 152 152 28 155 155 155 155 155 226 213 151 151
 151 151 151 222 222 222 222 45 45 45 45 45 45 119 119 119 152 152 152 152
 155 155 155 155 213 213 213 213 213 213 213 43 43 43 43 43 45 45 45 45
 45 119 119 119 119 152 152 152 152 152 155 155 213 213 213 213 213 213 213 213
 43 43 43 43 43 91 91 91 91 91 119 119 119 119 152 152 152 152 152 152
 213 213 213 213 213 213 213 213 213 43 43 43 43 43 91 91 91 91 91 119
 119 119 119 152 152 152 152 152 152 191 213 213 213 213 213 213 47 47 43 43
 43 43 43 91 91 91 91 91 91 119 119 119 152 152 152 152 152 191 209 217
 217 213 213 213 47 47 47 47 43 43 43 43 200 91 91 91 91 119 22 22
 22 22 120 120 120 120 209 209 217 217 217 217 47 47 47 47 47 135 135 43
 200 200 200 200 91 91 119 22 22 22 22 120 120 120 120 209 209 217 217 217
 217 209 219 219 219 135 135 135 135 200 200 200 200 200 200 22 22 22 22 22
 120 120 120 120 209 209 217 217 217 209 219 219 219 219 135 135 135 135 200 200
 200 200 200 200 22 22 22 22 22 22 120 21 21 21 209 209 209 209 219 219
 219 219 219 135 135 135 135 200 200 200 200 200 200 22 22 22 22 22 22 21
 21 21 21 209 209 209 209 219 219 219 219 219 135 135 135 87 87 200 200 200
 200 200 22 22 22 22 22 39 16 21 21 21 21 209 209 90 90 90 90 90
 90 87 87 87 87 87 87 200 200 200 200 22 22 22 22 39 39 21 21 21
 21 21 21 10 181 90 90 90 90 90 90 87 87 87 87 87 87 118 118 118
 22 22 22 39 39 39 21 21 21 21 21 21 181 181 181 90 90 90 90 92
 92 92 92 87 87 87 118 118 118 118 22 39 39 39 39 21 21 21 21 21
 21 181 181 181 181 90 90 90 92 92 92 92 92 87 87 118 118 118 104 237
 237 230 230 230 230 21 21 21 134 134 181 181 181 181 181 90 92 92 92 92
 116 116 116 111 114 114 104 104 237 230 230 230 230 230 108 134 134 134 134 134
 132 132 132 132 132 227 116 116 116 116 116 111 111 114 114 104 104 14 230 230
 230 230 230 108 134 134 134 134 134 132 132 132 132 132 227 116 116 116 116 116
 111 111 114 114 104 14 197 197 230 230 230 230 108 134 134 134 134 134 132 132
 132 132 227 227 145 145 86 86 86 86 88 114 114 14 14 197 197 197 230 230
 230 108 134 134 134 134 134 132 132 132 132 132 145 145 145 145 86 86 88 88
 88 88 197 197 197 197 197 197 230 230 215 215 134 134 134 134 132 132 132 132
 145 145 145 145 145 145 88 88 88 88 88 197 197 197 197 197 197 14 215 215
 215 215 134 134 134 132 132 132 132 125 125 125 125 125 125 88 88 88 88 88
 197 197 197 197 197 14 14 215 215 215 215 215 215 226 226 226 132 125 125 125
 125 125 125 125 126 126 126 88 88 197 197 14 14 14 14 50 50 50 215 215
 215 226 226 226 226 226 52 125 125 125 125 125 125 126 126 126 126 71 197 197
 98 98 98 98 50 50 50 50 50 226 226 226 226 226 226 52 52 52 125 125
 125 220 126 126 126 126 71 71 71 98 98 98 98 28 28 28 28 28 226 226
 226 226 226 226 52 52 52 52 52 220 220 220 220 220 45 45 45 45 98 98
 98 98 28 28 28 28 28 226 226 226 226 226 226 52 52 52 52 52 220 220
 220 220 220 45 45 45 45 45 98 98 98 28 28 28 28 155 155 226 226 226
 226 226 52 52 52 52 52 220 220 220 220 45 45 45 45 45 45 45 98 98
 28 28 28 155 155 155 155 226 226 226 151 151 52 52 52 52 220 220 220 45
 45 45 45 45 45 45 119 119 119 152 28 28 155 155 155 155 155 226 226 151
 151 52 52 52 52 220 220 220 45 45 45 45 45 45 119 119 119 119 152 152
 191 191 155 155 155 213 213 213 213 213 52 52 52 52 220 220 220 45 45 45
 45 45 45 119 119 119 119 152 152 191 191 191 191 155 213 213 213 213 213 213
 47 47 43 43 43 91 91 91 91 91 91 91 119 119 119 152 152 152 191 191
 191 191 213 213 213 213 213 47 47 47 47 43 43 43 142 91 91 91 91 91
 91 119 119 119 152 152 152 191 191 191 191 209 209 213 213 47 47 47 47 47
 47 43 43 142 91 91 91 91 91 91 119 119 119 152 152 152 191 191 191 209
 209 209 209 47 47 47 47 47 47 47 47 142 142 91 91 91 91 91 91 22
 22 22 22 120 120 120 191 209 209 209 209 209 209 47 47 47 47 47 47 47
 196 200 200 200 200 200 91 91 22 22 22 22 120 120 120 120 209 209 209 209
 209 209 47 47 47 47 47 135 135 200 200 200 200 200 200 200 22 22 22 22
 22 16 16 16 16 209 209 209 209 209 209 209 219 219 219 135 135 135 135 200
 200 200 200 200 200 22 22 22 22 22 16 16 16 16 209 209 209 209 209 209
 219 219 219 219 135 135 135 135 200 200 200 200 200 200 22 22 22 22 22 16
 16 16 21 21 209 209 209 209 209 219 219 219 219 135 135 87 87 87 200 200
 200 200 200 22 22 22 22 22 16 16 16 16 21 209 209 209 209 181 90 90
 90 90 87 87 87 87 87 87 200 200 200 200 22 22 22 22 22 39 21 21
 21 21 21 10 10 181 181 181 90 90 90 87 87 87 87 87 87 87 87 118
 200 22 22 22 22 39 39 21 21 21 21 10 181 181 181 181 181 181 90 90
 92 92 92 87 87 87 87 87 118 117 117 237 237 237 237 39 21 21 21 21
 32 181 181 181 181 181 181 181 181 92 92 92 92 92 87 87 87 118 117 237
 237 237 237 237 230 108 108 108 32 32 32 181 181 181 181 181 181 227 116 116
 116 116 116 116 111 114 114 237 237 237 237 237 230 230 108 108 108 134 32 32
 32 181 181 181 181 227 227 116 116 116 116 116 116 111 114 114 237 237 237 237
 237 230 230 108 108 108 134 32 32 32 132 132 132 132 227 227 227 116 116 116
 116 116 111 114 114 237 237 197 197 197 230 230 108 108 108 32 32 32 32 132
 132 132 132 227 227 227 145 86 86 86 86 88 114 114 14 14 197 197 197 197
 230 108 108 108 32 32 32 32 132 132 132 132 227 227 145 145 145 86 86 86
 88 88 197 197 197 197 197 197 197 230 108 108 108 32 32 32 32 132 132 132
 236 227 145 145 145 145 145 88 88 88 88 88 197 197 197 197 197 197 197 215
 215 215 215 32 32 32 132 132 236 236 125 125 125 125 125 125 88 88 88 88
 88 197 197 197 197 197 197 215 215 215 215 215 215 215 226 226 226 236 125 125
 125 125 125 125 125 126 126 126 88 88 197 197 197 197 197 197 50 50 50 215
 215 215 226 226 226 226 52 52 52 125 125 125 125 125 126 126 126 126 71 197
 197 98 98 98 98 50 50 50 50 50 226 226 226 226 226 52 52 52 52 52
 52 220 220 220 220 220 220 45 98 98 98 98 98 98 98 28 28 28 28 226
 226 226 226 226 52 52 52 52 52 52 220 220 220 220 220 45 45 98 98 98
 98 98 98 98 28 28 28 28 226 226 226 226 226 52 52 52 52 52 52 220
 220 220 220 220 45 45 45 45 98 98 98 98 98 28 28 28 155 155 226 226
 226 226 52 52 52 52 52 52 220 220 220 220 220 45 45 45 45 45 98 98
 98 98 28 28 155 155 155 155 226 226 226 52 52 52 52 52 52 220 220 220
 220 45 45 45 45 45 45 119 119 119 191 191 28 155 155 155 155 155 226 226
 52 52 52 52 52 52 220 220 220 220 45 45 45 45 45 119 119 119 119 191
 191 191 191 191 155 155 155 213 213 213 52 52 52 52 52 220 220 220 45 45
 45 45 45 91 119 119 119 119 152 191 191 191 191 191 155 213 213 47 47 47
 47 47 47 47 43 141 142 91 91 91 91 91 91 119 119 119 152 191 191 191
 191 191 191 191 209 47 47 47 47 47 47 47 47 47 141 142 142 91 91 91
 91 91 119 119 119 119 152 191 191 191 191 191 209 209 209 47 47 47 47 47
 47 47 47 142 142 142 91 91 91 91 91 119 119 119 119 191 191 191 191 191
 209 209 209 209 47 47 47 47 47 47 47 47 142 142 142 142 91 91 91 91
 22 22 22 22 16 120 191 191 209 209 209 209 209 209 47 47 47 47 47 47
 196 196 196 200 200 200 91 91 91 22 22 22 22 16 16 16 16 209 209 209
 209 209 209 47 47 47 47 47 47 196 196 200 200 200 200 200 200 22 22 22
 22 22 16 16 16 16 209 209 209 209 209 209 209 47 47 47 47 135 135 196
 200 200 200 200 200 200 22 22 22 22 22 16 16 16 16 209 209 209 209 209
 209 209 219 219 219 135 135 135 87 200 200 200 200 200 200 22 22 22 22 22
 16 16 16 16 209 209 209 209 209 209 209 219 219 219 135 87 87 87 87 200
 200 200 200 200 22 22 22 22 22 16 16 16 16 16 10 10 10 10 10 10
 90 90 62 62 62 62 87 87 87 87 200 200 117 22 22 22 22 22 16 16
 16 16 10 10 10 10 10 181 181 181 181 90 62 62 87 87 87 87 87 87
 117 117 117 237 237 237 237 39 206 21 21 10 10 10 10 181 181 181 181 181
 57 57 57 62 87 87 87 87 87 117 117 117 237 237 237 237 237 206 206 21
 10 10 10 181 181 181 181 181 181 57 57 57 92 92 87 87 87 87 117 117
 237 237 237 237 237 237 108 108 108 32 32 32 181 181 181 181 181 181 227 57
 57 116 116 116 116 111 114 237 237 237 237 237 237 237 237 108 108 108 32 32
 32 32 181 181 181 181 53 227 227 116 116 116 116 116 111 114 237 237 237 237
 237 237 237 237 108 108 108 32 32 32 32 32 132 181 53 227 227 227 116 116
 116 116 116 111 114 237 237 237 197 197 237 237 230 108 108 108 32 32 32 32
 32 132 132 53 227 227 227 185 86 86 86 86 88 85 85 237 237 197 197 197
 197 230 108 108 108 32 32 32 32 32 132 236 236 227 227 185 185 185 86 86
 86 88 85 197 197 197 24 24 24 24 108 108 108 108 32 32 32 32 32 236
 236 236 236 185 185 185 185 185 86 88 88 4 197 197 197 24 24 24 24 24
 108 215 215 32 32 32 32 32 236 236 236 236 185 185 185 185 185 185 88 4
 4 4 24 24 24 24 24 24 24 215 215 215 215 215 215 226 226 236 236 236
 236 125 125 125 125 125 125 126 4 4 4 24 24 24 24 24 24 18 50 215
 215 215 215 226 226 226 226 52 52 52 52 52 125 125 125 220 220 220 4 4
 24 24 98 98 98 98 82 50 50 50 50 226 226 226 226 226 52 52 52 52
 52 52 220 220 220 220 220 220 4 98 98 98 98 98 98 82 82 82 28 28
 226 226 226 226 226 52 52 52 52 52 52 220 220 220 220 220 220 45 98 98
 98 98 98 98 82 82 82 28 28 226 226 226 226 226 52 52 52 52 52 52
 220 220 220 220 220 220 45 45 98 98 98 98 98 82 82 82 28 155 155 226
 226 226 226 52 52 52 52 52 52 220 220 220 220 220 45 45 45 45 45 98
 98 98 82 82 82 155 155 155 155 226 226 226 52 52 52 52 52 52 220 220
 220 220 220 45 45 45 45 45 98 98 98 82 82 191 191 155 155 155 155 226
 226 52 52 52 52 52 52 220 220 220 220 220 45 45 45 45 64 64 64 64
 191 191 191 191 191 191 155 155 47 47 47 52 52 52 52 52 220 220 220 220
 45 45 45 91 91 64 64 64 64 191 191 191 191 191 191 191 209 47 47 47
 47 47 47 47 221 141 141 142 142 91 91 91 91 91 64 64 64 64 191 191
 191 191 191 191 191 209 209 47 47 47 47 47 47 47 141 141 142 142 142 91
 91 91 91 64 64 64 64 191 191 191 191 191 191 209 209 209 47 47 47 47
 47 47 47 142 142 142 142 142 91 91 91 91 64 64 64 64 208 191 191 191
 191 209 209 209 209 47 47 47 47 47 47 47 142 142 142 142 142 142 91 91
 91 22 22 22 208 208 208 208 191 209 209 209 209 209 209 47 47 47 47 47
 47 196 196 196 196 196 196 1 1 1 22 22 22 16 16 208 208 208 209 209
 209 209 209 209 47 47 47 47 47 47 196 196 196 196 196 196 1 1 1 22
 22 22 16 16 16 16 16 209 209 209 209 209 209 209 47 47 47 47 47 196
 196 196 196 200 200 1 1 1 22 22 22 16 16 16 16 16 209 209 209 209
 209 209 209 47 47 47 47 62 62 196 196 200 200 200 200 1 22 22 22 22
 16 16 16 16 16 209 209 209 209 209 209 209 219 219 219 62 62 62 62 87
 87 200 200 200 200 22 117 22 22 22 16 16 16 16 16 10 10 10 10 10
 10 10 66 62 62 62 62 62 62 62 62 117 117 117 117 117 117 22 22 16
 16 16 16 10 10 10 10 10 10 181 181 66 57 57 62 62 62 62 62 62
 117 117 117 117 117 237 237 237 206 206 206 206 10 10 10 10 10 181 181 181
 181 57 57 57 62 62 62 62 62 117 117 117 117 237 237 237 237 206 206 206
 206 10 10 10 10 181 181 181 181 181 57 57 57 57 62 62 62 62 117 117
 117 237 237 237 237 237 237 206 108 108 32 32 32 181 181 181 181 181 181 57
 57 57 57 57 116 62 62 117 237 237 237 237 237 237 237 237 108 108 108 32
 32 32 32 181 181 181 53 53 53 53 57 57 116 116 116 85 85 237 237 237
 237 237 237 237 237 108 108 108 32 32 32 32 32 181 181 53 53 53 53 53
 116 116 116 116 85 85 85 237 237 237 237 237 237 237 108 108 108 32 32 32
 32 32 236 236 53 53 53 53 53 86 86 86 86 85 85 85 237 237 24 24
 24 24 108 108 108 108 32 32 32 32 32 236 236 236 53 53 53 185 185 86
 86 86 85 85 85 197 197 24 24 24 24 18 108 108 108 32 32 32 32 32
 236 236 236 236 53 185 185 185 185 86 4 4 4 4 24 24 24 24 24 24
 18 18 108 215 32 32 32 32 236 236 236 236 236 185 185 185 185 185 185 4
 4 4 4 24 24 24 24 24 24 18 18 215 215 215 32 32 32 236 236 236
 236 236 125 185 185 185 125 125 4 4 4 4 24 24 24 24 24 18 18 18
 82 215 215 83 226 226 226 236 236 52 52 52 52 52 125 220 220 220 4 4
 4 139 24 98 98 98 82 82 82 82 82 83 83 226 226 226 226 52 52 52
 52 52 52 220 220 220 220 220 4 4 139 98 98 98 98 82 82 82 82 82
 28 226 226 226 226 226 52 52 52 52 52 52 220 220 220 220 220 102 102 98
 98 98 98 98 82 82 82 82 82 28 226 226 226 226 226 52 52 52 52 52
 52 220 220 220 220 220 102 183 183 98 98 98 98 82 82 82 82 82 155 155
 226 226 226 226 52 52 52 52 52 52 220 220 220 220 220 102 183 183 183 183
 98 98 82 82 82 82 82 155 155 155 226 226 52 52 52 52 52 52 52 220
 220 220 220 220 183 183 183 183 183 98 98 82 82 82 82 191 155 155 155 155
 159 159 52 52 52 52 52 52 220 220 220 220 220 183 183 183 183 64 64 64
 64 191 191 191 191 191 191 191 159 159 159 47 52 52 52 52 221 221 141 141
 141 142 183 183 183 183 64 64 64 64 64 191 191 191 191 191 167 209 209 47
 47 47 47 47 221 221 141 141 142 142 142 107 91 91 64 64 64 64 64 191
 191 191 191 191 191 167 209 209 47 47 47 47 47 47 141 141 141 142 142 142
 142 91 91 64 64 64 64 64 64 191 191 191 191 191 209 209 209 47 47 47
 47 47 47 47 142 142 142 142 142 142 91 91 64 64 64 64 64 208 208 191
 191 191 209 209 209 209 47 47 47 47 47 47 47 142 142 142 142 142 142 1
 1 1 1 64 64 208 208 208 208 208 209 209 209 209 209 209 47 47 47 47
 47 47 196 196 196 196 196 196 1 1 1 1 22 22 208 208 208 208 208 209
 209 209 209 209 209 47 47 47 47 47 47 196 196 196 196 196 196 1 1 1
 1 22 22 16 16 16 208 16 209 209 209 209 209 209 209 47 47 47 47 47
 196 196 196 196 196 196 1 1 1 22 22 22 16 16 16 16 16 209 209 209
 209 209 209 209 47 47 47 62 62 62 62 196 196 196 200 1 1 1 22 22
 22 16 16 16 16 16 209 209 209 209 10 10 10 219 219 62 62 62 62 62
 62 62 200 200 200 117 117 117 117 22 206 16 166 16 16 10 10 10 10 10
 10 10 66 66 66 62 62 62 62 62 62 62 117 117 117 117 117 117 206 206
 206 206 206 206 10 10 10 10 10 10 181 66 66 66 57 62 62 62 62 62
 62 117 117 117 117 117 237 237 206 206 206 206 206 206 10 10 10 10 10 181
 181 66 66 57 57 62 62 62 62 62 117 117 117 117 237 237 237 237 206 206
 206 206 206 10 10 10 10 181 181 181 66 66 57 57 57 62 62 62 62 117
 117 117 237 237 237 237 237 206 206 206 206 206 32 10 10 181 181 181 181 66
 66 57 57 57 57 62 62 62 117 117 237 237 237 237 237 237 223 223 223 223
 32 32 32 32 17 181 181 53 53 53 53 57 57 57 116 85 85 85 85 237
 237 237 237 237 237 223 223 223 108 32 32 32 32 32 181 53 53 53 53 53
 53 57 57 85 85 85 85 85 237 237 237 237 237 237 223 223 108 108 32 32
 32 32 32 236 236 53 53 53 53 53 53 86 85 85 85 85 85 237 237 24
 24 24 237 18 108 108 108 32 32 32 32 32 236 236 236 53 53 53 53 185
 185 85 85 85 85 85 85 237 24 24 24 18 18 18 100 100 32 32 32 32
 236 236 236 236 236 53 53 185 185 185 4 4 4 4 4 139 24 24 24 24
 18 18 18 100 100 32 32 32 32 236 236 236 236 236 168 185 185 185 185 4
 4 4 4 4 139 24 24 24 24 18 18 18 18 100 100 124 124 124 168 168
 168 168 168 168 185 185 185 4 4 4 4 4 4 139 139 188 188 18 18 18
 18 18 82 83 83 83 83 168 168 168 168 168 52 52 52 220 220 4 4 4
 4 4 139 139 188 188 18 18 82 82 82 82 83 83 83 83 226 168 168 52
 52 52 52 52 220 220 220 4 4 4 4 139 139 98 98 98 82 82 82 82
 82 83 83 83 83 226 203 203 52 52 52 52 52 220 220 220 220 102 102 102
 102 98 98 98 98 82 82 82 82 82 83 83 83 83 226 203 203 203 52 52
 52 52 220 220 220 220 102 102 102 183 183 98 98 98 82 82 82 82 82 83
 83 83 83 226 203 203 52 52 52 52 52 220 220 220 220 102 102 183 183 183
 183 78 78 82 82 82 82 82 83 83 83 159 159 159 52 52 52 52 52 52
 220 220 220 220 102 183 183 183 183 183 78 78 78 82 82 82 82 191 191 83
 159 159 159 159 52 52 52 221 221 221 141 141 141 183 183 183 183 183 64 64
 64 64 191 191 191 191 191 191 167 159 159 159 159 159 52 221 221 221 221 141
 141 141 107 183 183 183 183 64 64 64 64 64 191 191 191 191 167 167 159 159
 159 159 47 47 221 221 221 141 141 141 141 107 107 107 107 64 64 64 64 64
 64 191 191 191 167 167 167 209 209 47 47 47 47 47 221 141 141 141 141 142
 107 107 107 107 64 64 64 64 64 64 191 191 191 167 167 167 209 209 19 47
 47 47 47 47 141 141 141 142 142 142 107 107 107 64 64 64 64 64 208 208
 208 191 167 209 209 209 209 19 47 47 47 47 47 141 141 142 142 142 142 142
 1 1 1 1 64 64 208 208 208 208 208 209 209 209 209 209 209 47 47 47
 47 47 47 196 196 196 196 196 196 1 1 1 1 1 208 208 208 208 208 208
 209 209 209 209 209 209 47 47 47 47 47 196 196 196 196 196 196 196 1 1
 1 1 22 22 208 208 208 208 208 209 209 209 209 209 209 209 47 47 47 47
 196 196 196 196 196 196 196 1 1 1 1 22 22 166 166 166 166 166 209 209
 209 209 209 209 209 47 47 47 62 62 196 196 196 196 196 196 1 1 1 22
 22 22 166 166 166 166 166 209 209 10 10 10 10 10 10 219 62 62 62 62
 62 62 62 196 200 117 117 117 117 117 206 206 206 206 206 206 10 10 10 10
 10 10 10 66 66 66 62 62 62 62 62 62 62 117 117 117 117 117 117 206
 206 206 206 206 206 206 10 10 10 10 10 10 66 66 66 66 62 62 62 62
 62 62 117 117 117 117 117 237 206 206 206 206 206 206 206 10 10 10 10 10
 181 66 66 66 66 57 62 62 62 62 62 117 117 117 117 237 237 237 206 206
 206 206 206 206 10 10 10 17 17 17 66 66 66 66 57 57 62 62 62 62
 113 117 117 237 237 237 237 237 206 206 206 206 206 10 10 17 17 17 17 66
 66 66 66 57 57 62 62 62 85 85 85 237 237 237 237 237 237 223 223 223
 223 32 32 32 17 17 17 17 53 53 53 53 57 57 62 62 85 85 85 85
 237 237 237 237 237 237 223 223 223 223 32 32 32 32 17 17 53 53 53 53
 53 53 57 62 85 85 85 85 85 85 237 237 237 237 129 129 223 223 100 100
 32 32 32 32 236 236 53 53 53 53 53 53 53 85 85 85 85 85 85 237
 24 24 129 129 129 100 100 100 100 32 32 32 32 236 236 236 53 53 53 53
 53 53 85 85 85 85 85 85 237 188 188 18 18 18 100 100 100 100 100 32
 32 236 236 236 236 236 53 53 53 185 185 4 4 4 4 4 139 139 188 188
 18 18 18 18 100 100 100 100 124 124 168 168 168 168 168 168 185 185 185 4
 4 4 4 4 4 139 139 188 188 18 18 18 18 18 100 100 124 124 124 168
 168 168 168 168 168 168 185 4 4 4 4 4 4 4 139 139 188 188 188 18
 18 18 18 100 124 124 124 124 168 168 168 168 168 168 52 52 172 172 4 4
 4 4 4 139 139 188 188 188 18 18 82 82 82 83 83 83 83 168 168 168
 168 168 52 52 52 220 220 4 4 4 4 4 139 139 188 188 188 82 82 82
 82 82 83 83 83 83 83 203 203 203 203 52 52 52 220 220 220 102 102 102
 102 102 139 78 78 78 82 82 82 82 82 83 83 83 83 83 203 203 203 203
 52 52 52 109 220 220 102 102 102 102 102 183 78 78 78 82 82 82 82 82
 83 83 83 83 83 203 203 203 203 52 52 109 109 109 220 102 102 102 102 183
 183 78 78 78 78 82 82 82 82 83 83 83 159 159 159 203 203 203 52 109
 221 109 109 220 102 102 102 183 183 183 78 78 78 78 82 82 82 82 83 83
 83 159 159 159 159 159 159 221 221 221 221 141 141 141 102 183 183 183 183 64
 64 64 64 64 191 191 191 191 167 159 159 159 159 159 159 159 221 221 221 221
 141 141 141 107 107 107 183 183 64 64 64 64 64 191 211 211 167 167 167 159
 159 159 159 159 159 221 221 221 141 141 141 141 107 107 107 107 64 64 64 64
 64 64 211 211 211 167 167 167 19 19 159 159 47 47 221 221 141 141 141 141
 141 107 107 107 107 64 64 64 64 64 64 191 211 167 167 167 167 19 19 19
 19 19 47 47 221 141 141 141 141 142 107 107 107 107 64 64 64 64 64 208
 208 173 173 167 167 209 19 19 19 19 19 47 47 47 141 141 141 142 142 142
 107 1 1 1 1 64 64 208 208 208 173 173 173 209 209 209 19 19 19 47
 47 47 47 141 141 196 196 196 196 196 1 1 1 1 1 208 208 208 208 173
 173 173 209 209 209 209 19 19 47 47 47 47 196 196 196 196 196 196 196 1
 1 1 1 1 208 208 208 208 208 208 209 209 209 209 209 209 209 47 47 47
 47 196 196 196 196 196 196 196 1 1 1 1 1 22 166 166 166 166 166 209
 209 209 209 209 209 209 47 47 47 62 62 196 196 196 196 196 196 1 1 1
 22 22 22 166 166 166 166 166 209 209 10 10 10 10 10 10 10 62 62 62
 62 62 62 62 196 196 117 117 117 117 117 206 206 206 206 206 206 10 10 10
 10 10 10 10 66 66 66 62 62 62 62 62 62 62 117 117 117 117 117 117
 206 206 206 206 206 206 206 10 10 10 10 10 10 66 66 66 66 62 62 62
 62 62 62 117 117 117 117 113 237 206 206 206 206 206 206 206 10 10 10 10
 17 17 66 66 66 66 62 62 62 62 62 62 113 113 113 113 113 237 237 206
 206 206 206 206 206 10 10 17 17 17 17 66 66 66 66 66 62 62 62 62
 113 113 113 113 113 237 237 237 206 206 206 206 206 206 10 17 17 17 17 17
 66 66 66 66 66 57 62 62 62 113 113 113 113 113 237 237 237 223 223 223
 223 223 223 32 17 17 17 17 17 66 66 66 66 66 57 62 85 85 85 85
 85 113 237 237 237 129 129 223 223 223 223 223 32 32 17 17 17 17 53 53
 53 53 53 53 53 85 85 85 85 85 85 237 237 237 129 129 129 223 223 100
 100 100 100 17 17 17 53 53 53 53 53 53 53 53 85 85 85 85 85 85
 237 188 188 129 129 129 129 100 100 100 100 100 124 17 236 236 236 53 53 53
 53 53 53 85 85 85 85 85 85 85 188 188 18 18 18 100 100 100 100 100
 124 124 124 168 168 168 168 53 53 53 53 172 172 4 4 4 4 139 139 188
 188 18 18 18 18 100 100 100 124 124 124 124 168 168 168 168 168 53 53 172
 172 172 4 4 4 4 139 139 188 188 188 18 18 18 100 100 124 124 124 124
 124 168 168 168 168 168 168 168 172 172 172 4 4 4 4 139 139 188 188 18
 18 18 18 18 124 124 124 124 124 168 168 168 168 168 168 168 168 172 172 172
 4 4 4 4 139 139 188 188 18 18 18 18 18 83 83 83 83 83 168 168
 168 168 168 168 52 52 172 172 172 4 4 4 4 139 139 188 188 18 18 82
 82 82 83 83 83 83 83 83 203 203 203 203 203 109 109 109 109 172 102 102
 102 102 102 139 78 78 78 82 82 82 82 83 83 83 83 83 83 203 203 203
 203 203 109 109 109 109 102 102 102 102 102 102 102 78 78 78 78 82 82 82
 83 83 83 83 83 83 203 203 203 203 203 109 109 109 109 109 102 102 102 102