# vtk DataFile Version 2.0
Data set from ImportExport Version 6.5.171.b0b162591
ASCII

DATASET RECTILINEAR_GRID
DIMENSIONS 30 30 30
X_COORDINATES 30 float
-1.250000 1.250000 3.750000 6.250000 8.750000 11.250000 13.750000 16.250000 18.750000 21.250000 23.750000 26.250000 28.750000 31.250000 33.750000 36.250000 38.750000 41.250000 43.750000 46.250000 48.750000 
51.250000 53.750000 56.250000 58.750000 61.250000 63.750000 66.250000 68.750000 71.250000 
Y_COORDINATES 30 float
-1.250000 1.250000 3.750000 6.250000 8.750000 11.250000 13.750000 16.250000 18.750000 21.250000 23.750000 26.250000 28.750000 31.250000 33.750000 36.250000 38.750000 41.250000 43.750000 46.250000 48.750000 
51.250000 53.750000 56.250000 58.750000 61.250000 63.750000 66.250000 68.750000 71.250000 
Z_COORDINATES 30 float
-1.250000 1.250000 3.750000 6.250000 8.750000 11.250000 13.750000 16.250000 18.750000 21.250000 23.750000 26.250000 28.750000 31.250000 33.750000 36.250000 38.750000 41.250000 43.750000 46.250000 48.750000 
51.250000 53.750000 56.250000 58.750000 61.250000 63.750000 66.250000 68.750000 71.250000 
CELL_DATA 24389
SCALARS FeatureIds int 1
LOOKUP_TABLE default
 28 28 28 28 28 28 28 28 167 167 41 41 41 41 41 41 69 69 69 69
 69 69 43 43 43 43 43 172 172 28 28 28 28 28 28 28 28 167 167 41
 41 41 41 41 41 34 34 34 69 69 69 43 43 43 43 43 43 172 225 225
 28 28 28 28 132 132 132 132 41 41 41 41 41 41 34 34 34 34 69 43
 43 43 43 43 43 43 43 225 225 225 28 28 132 132 132 132 132 25 25 25
 25 25 25 34 34 34 34 20 20 43 43 43 43 43 43 225 225 225 225 225
 132 132 132 132 132 132 25 25 25 25 25 25 34 34 34 20 20 20 20 43
 43 43 43 43 225 225 225 225 225 200 200 200 200 200 120 120 25 25 25 25
 25 34 34 34 20 20 20 20 20 165 165 165 225 225 225 225 225 225 200 200
 200 200 200 120 120 120 25 25 25 25 25 124 124 20 20 20 20 20 165 165
 165 165 225 225 225 225 225 200 200 200 200 200 120 120 120 120 25 25 25 25
 124 124 224 224 224 224 224 165 165 165 165 225 242 242 242 242 200 200 200 200
 200 120 120 120 208 208 208 208 208 124 224 224 224 224 224 224 165 165 165 165
 242 242 242 242 242 200 200 200 80 80 120 120 208 208 208 85 85 85 224 224
 224 224 224 224 224 165 165 165 242 242 242 242 242 242 242 80 80 80 80 80
 120 85 85 85 85 85 85 115 115 115 224 224 224 224 224 131 242 242 242 242
 242 242 242 242 80 80 80 80 80 80 85 85 85 85 85 184 184 115 115 224
 224 224 224 224 131 242 242 242 242 242 242 242 242 38 80 80 80 80 80 85
 85 85 85 85 184 184 115 115 115 224 224 224 131 131 131 242 242 242 242 242
 242 38 38 38 80 80 80 137 137 137 137 137 137 184 184 184 115 115 60 60
 131 131 131 131 242 242 242 242 36 36 36 38 38 80 80 137 137 137 137 137
 137 137 184 184 184 184 60 60 111 131 131 131 131 131 242 36 36 36 36 36
 38 38 80 80 137 137 137 137 137 137 137 144 144 184 60 60 111 111 142 142
 142 142 142 242 36 36 36 36 36 36 36 80 137 137 137 137 137 137 137 144
 144 144 144 171 171 171 142 142 142 142 142 142 244 244 36 36 36 36 36 152
 152 5 5 5 137 137 137 144 144 144 144 171 171 171 171 142 142 142 142 142
 244 244 244 36 36 36 36 42 42 42 5 5 5 5 137 137 144 144 144 144
 171 171 171 171 142 142 142 142 142 244 244 244 36 36 36 42 42 42 42 42
 5 5 5 137 137 144 205 205 144 171 171 171 171 142 142 142 142 244 244 244
 244 36 36 42 42 42 42 42 42 73 73 73 73 205 205 205 205 205 2 2
 2 2 2 127 127 127 127 244 244 244 228 42 42 42 42 42 42 42 73 73
 73 73 205 205 205 205 205 2 2 2 2 2 127 127 127 127 127 127 228 228
 228 42 42 42 42 42 73 73 73 73 73 205 205 205 205 205 2 2 2 2
 2 127 127 127 127 127 127 228 228 228 228 42 42 42 42 73 73 73 73 73
 141 205 205 205 205 2 2 2 2 2 127 127 127 127 127 127 228 228 228 228
 42 42 42 42 73 73 73 73 141 141 141 141 141 141 2 2 2 2 2 127
 127 127 127 127 228 228 228 228 228 123 123 123 73 73 73 73 73 141 141 141
 141 141 141 69 69 69 69 69 172 172 172 172 172 172 228 228 228 228 123 123
 123 123 73 73 73 73 141 141 141 141 141 141 69 69 69 69 69 172 172 172
 172 172 172 172 228 228 228 123 123 123 123 73 73 73 141 141 141 141 141 141
 69 69 69 69 69 69 172 172 172 172 172 172 172 228 28 28 28 28 123 167
 167 167 167 141 141 141 141 141 141 69 69 69 69 69 69 43 172 172 172 172
 172 28 28 28 28 28 28 167 167 167 167 181 181 181 181 181 181 69 69 69
 69 69 69 43 43 43 43 43 172 172 28 28 28 28 28 28 132 132 167 167
 181 181 181 181 181 181 34 34 34 69 69 43 43 43 43 43 43 43 172 225
 225 28 28 28 132 132 132 132 132 181 181 181 181 181 181 34 34 34 34 69
 43 43 43 43 43 43 43 43 225 225 225 225 132 132 132 132 132 132 25 25
 25 25 25 25 34 34 34 34 20 20 43 43 43 43 43 43 225 225 225 225
 225 132 132 132 132 132 132 25 25 25 25 25 25 34 34 34 124 20 20 20
 43 43 43 43 114 225 225 225 225 225 200 200 200 200 200 120 120 25 25 25
 25 25 25 124 124 124 124 20 20 20 43 43 114 114 225 225 225 225 225 200
 200 200 200 200 120 120 120 25 25 25 25 25 124 124 124 124 224 224 224 165
 114 114 114 225 225 225 225 225 200 200 200 200 200 120 120 120 120 25 25 25
 25 124 124 124 224 224 224 224 165 165 114 114 225 242 242 242 242 200 200 200
 200 200 120 120 120 208 208 208 25 25 124 124 224 224 224 224 224 165 165 165
 242 242 242 242 242 242 200 200 200 200 200 120 120 208 208 208 208 208 208 124
 124 224 224 224 224 224 224 165 242 242 242 242 242 242 242 242 80 80 80 80
 80 120 85 85 85 85 85 85 115 115 224 224 224 224 224 224 131 242 242 242
 242 242 242 242 242 80 80 80 80 80 85 85 85 85 85 85 184 184 60 60
 224 224 224 224 131 131 131 242 242 242 242 242 242 242 38 80 80 80 80 85
 85 85 85 85 85 184 60 60 60 60 224 224 131 131 131 131 242 242 242 242
 242 242 242 38 38 80 80 80 137 137 137 137 137 137 137 60 60 60 60 60
 60 131 131 131 131 98 242 242 242 242 242 242 38 38 80 80 137 137 137 137
 137 137 137 137 60 60 60 60 60 111 111 131 131 131 98 98 242 36 36 36
 36 38 38 5 5 5 137 137 137 137 137 137 144 144 60 60 60 111 111 111
 135 135 135 98 98 36 36 36 36 36 36 152 5 5 5 5 137 137 137 137
 144 144 144 144 93 93 93 111 135 135 135 135 244 244 244 36 36 36 36 152
 152 152 5 5 5 5 137 137 144 144 144 144 93 93 93 93 93 135 135 135
 135 244 244 244 36 36 36 152 152 152 152 5 5 5 5 5 137 144 144 144
 144 93 93 93 93 93 142 135 135 244 244 244 244 244 36 229 229 229 229 42
 5 5 5 5 5 5 205 205 205 205 93 93 93 93 93 142 135 135 244 244
 244 244 244 229 229 229 229 229 42 73 73 73 73 5 205 205 205 205 205 205
 93 93 93 93 127 127 127 244 244 244 244 229 229 229 229 229 229 42 73 73
 73 73 73 205 205 205 205 205 205 2 201 201 201 127 127 127 127 127 127 228
 228 228 229 229 42 42 42 73 73 73 73 73 205 205 205 205 205 205 2 201
 201 201 127 127 127 127 127 127 228 228 228 228 42 42 42 73 73 73 73 73
 73 141 205 205 205 205 205 201 201 201 201 127 127 127 127 127 127 228 228 228
 228 228 42 42 73 73 73 73 73 141 141 141 141 141 141 141 201 201 201 201
 201 127 127 127 127 228 228 228 228 228 123 123 167 73 73 73 73 73 141 141
 141 141 141 141 141 201 201 201 201 172 172 172 172 172 228 228 228 228 228 123
 167 167 167 167 73 73 73 141 141 141 141 141 141 69 69 69 69 69 172 172
 172 172 172 172 172 228 228 228 123 167 167 167 167 167 167 73 141 141 141 141
 141 141 69 69 69 69 172 172 172 172 172 172 172 172 228 28 28 28 28 167
 167 167 167 167 181 181 141 141 141 141 141 69 69 69 69 43 43 43 172 172
 172 172 28 28 28 28 28 167 167 167 167 167 181 181 181 181 181 181 181 69
 69 69 69 43 43 43 43 43 43 172 172 225 225 28 28 132 132 132 132 167
 167 181 181 181 181 181 181 181 34 34 69 69 43 43 43 43 43 43 43 172
 225 225 225 28 132 132 132 132 132 132 181 181 181 181 181 181 181 34 34 34
 106 106 43 43 43 43 43 43 43 225 225 225 225 132 132 132 132 132 153 25
 25 25 25 25 25 25 34 34 124 106 106 106 43 43 43 43 43 225 225 225
 225 225 132 132 132 132 132 153 25 25 25 25 25 25 25 124 124 124 124 106
 106 106 43 43 114 114 225 225 225 225 225 132 132 132 132 132 120 120 25 25
 25 25 25 25 124 124 124 124 124 106 106 114 114 114 114 114 225 225 225 225
 200 200 200 200 200 120 120 120 25 25 25 25 25 124 124 124 124 124 124 106
 114 114 114 114 114 225 225 225 225 200 200 200 200 200 120 120 120 120 208 25
 25 124 124 124 124 124 224 224 224 114 114 114 114 114 242 242 242 242 200 200
 200 200 200 120 120 120 208 208 208 208 124 124 124 124 224 224 224 224 224 49
 114 242 242 242 242 242 242 242 200 200 200 125 120 120 208 208 208 208 208 191
 124 124 224 224 224 224 224 224 49 242 242 242 242 242 242 242 242 242 80 80
 125 120 120 85 85 85 85 85 191 191 124 224 224 224 224 224 224 49 242 242
 242 242 242 242 242 242 242 80 80 80 185 85 85 85 85 85 85 191 60 60
 60 60 224 224 224 131 131 98 242 242 242 242 242 242 211 211 211 185 185 185
 85 85 85 85 85 85 191 60 60 60 60 60 224 131 131 131 98 98 242 242
 242 242 242 211 211 211 185 185 185 137 137 137 137 137 137 137 60 60 60 60
 60 111 111 131 131 98 98 98 242 242 242 242 211 211 211 185 185 137 137 137
 137 137 137 137 137 60 60 60 60 60 111 111 111 98 98 98 98 242 242 36
 36 36 152 152 5 5 5 5 137 137 137 137 137 144 144 60 60 60 111 111
 111 111 98 98 98 98 36 36 36 36 152 152 152 5 5 5 5 5 137 137
 137 144 144 144 93 93 93 93 111 111 135 135 135 98 98 244 36 36 36 152
 152 152 152 5 5 5 5 5 137 137 144 144 144 93 93 93 93 93 135 135
 135 135 244 244 244 244 36 152 152 152 152 152 5 5 5 5 5 5 137 144
 144 144 93 93 93 93 93 135 135 135 244 244 244 244 244 229 229 229 229 229
 229 5 5 5 5 5 5 130 130 130 130 93 93 93 93 93 93 135 244 244
 244 244 244 244 229 229 229 229 229 229 73 73 5 5 5 130 130 130 130 205
 93 93 93 93 93 134 134 244 244 244 244 244 229 229 229 229 229 229 229 73
 73 73 73 5 130 130 130 205 205 205 201 201 201 201 201 127 127 127 127 244
 228 228 229 229 229 229 229 73 73 73 73 73 100 130 130 205 205 205 205 201
 201 201 201 201 127 127 127 127 127 228 228 228 229 229 229 229 73 73 73 73
 73 100 141 205 205 205 205 201 201 201 201 201 201 127 127 127 127 127 228 228
 228 228 229 42 42 73 73 73 73 73 141 141 141 141 141 141 201 201 201 201
 201 201 127 127 127 172 228 228 228 228 228 228 167 167 167 73 73 73 73 141
 141 141 141 141 141 141 201 201 201 201 201 172 172 172 172 228 228 228 228 228
 228 167 167 167 167 167 73 73 141 141 141 141 141 141 141 201 201 201 201 172
 172 172 172 172 172 172 228 228 228 167 167 167 167 167 167 167 73 141 141 141
 141 141 141 69 69 69 69 172 172 172 172 172 172 172 172 228 228 28 28 167
 167 167 167 167 167 181 181 181 181 141 141 141 69 69 69 69 43 43 43 172
 172 172 172 225 28 28 28 167 167 167 167 167 167 181 181 181 181 181 181 181
 181 69 69 69 43 43 43 43 43 43 43 172 225 225 28 28 219 219 219 219
 219 219 181 181 181 181 181 181 181 181 65 76 106 106 106 106 43 43 43 43
 43 225 225 225 225 132 132 132 219 219 219 181 181 181 181 181 181 181 65 65
 65 106 106 106 106 106 43 43 43 43 225 225 225 225 132 132 132 132 219 153
 153 181 181 181 181 181 65 65 65 65 106 106 106 106 106 43 43 43 225 225
 225 225 225 132 132 132 132 132 153 153 153 25 25 25 25 65 65 65 124 124
 106 106 106 106 106 114 114 225 225 225 225 225 225 132 132 132 153 153 153 153
 25 25 25 25 65 124 124 124 124 124 106 106 106 114 114 114 114 44 44 44
 44 44 200 200 200 125 153 153 120 25 25 25 25 65 124 124 124 124 124 124
 106 106 114 114 114 114 44 44 44 44 200 200 200 125 125 125 125 120 120 25
 25 25 124 124 124 124 124 124 45 45 49 49 114 114 114 44 44 44 44 200
 200 200 125 125 125 125 120 208 208 208 208 124 124 124 124 124 45 45 45 49
 49 49 114 44 242 242 242 242 211 211 125 125 125 125 125 208 208 208 208 191
 191 124 124 124 45 45 45 45 49 49 49 242 242 242 242 242 242 211 211 211
 125 125 125 15 15 85 85 191 191 191 191 191 45 45 45 45 45 49 49 49
 242 242 242 242 242 211 211 211 211 185 185 185 15 15 15 85 191 191 191 191
 60 60 60 45 45 45 98 98 98 98 242 242 242 242 211 211 211 211 185 185
 185 15 15 15 85 191 191 191 60 60 60 60 60 45 98 98 98 98 98 98
 242 242 242 211 211 211 211 185 185 185 15 15 15 137 191 191 191 60 60 60
 60 60 111 111 98 98 98 98 98 98 242 242 211 211 211 211 185 185 245 5
 137 137 137 137 137 137 60 60 60 60 60 111 111 111 98 98 98 98 98 242
 36 211 211 152 152 245 245 5 5 5 137 137 137 137 144 60 60 60 60 111
 111 111 111 98 98 98 98 98 36 36 152 152 152 152 152 5 5 5 5 5
 137 137 137 144 144 93 93 93 93 111 111 111 135 98 98 98 244 36 152 152
 152 152 152 152 5 5 5 5 5 5 137 144 144 93 93 93 93 93 93 111
 135 135 135 244 244 244 244 152 152 152 152 152 152 5 5 5 5 5 5 5
 144 144 93 93 93 93 93 93 111 135 135 244 244 244 244 244 152 152 152 152
 152 152 5 5 5 5 5 5 130 130 130 130 93 93 93 93 93 134 134 244
 244 244 244 244 229 229 229 229 229 229 229 229 5 5 5 5 130 130 130 130
 130 93 93 93 93 134 134 134 134 244 244 244 48 229 229 229 229 229 229 229
 73 73 73 100 100 130 130 130 130 130 201 201 201 201 134 134 134 134 127 48
 48 48 228 229 229 229 229 229 229 73 73 73 100 100 130 130 130 130 205 201
 201 201 201 201 134 134 134 48 48 48 228 228 228 229 229 229 229 73 73 73
 73 100 100 100 130 130 205 205 201 201 201 201 201 201 134 134 48 48 48 228
 228 228 228 229 229 229 73 73 73 73 100 100 100 141 141 141 141 201 201 201
 201 201 201 134 48 48 48 48 228 228 228 228 228 167 167 167 167 78 78 100
 100 141 141 141 141 141 201 201 201 201 201 201 172 172 172 139 139 228 228 228
 228 3 167 167 167 167 167 78 78 100 141 141 141 141 141 201 201 201 201 201
 201 172 172 172 172 172 172 228 228 3 3 167 167 167 167 167 78 78 181 141
 141 141 141 141 201 201 201 201 201 172 172 172 172 172 172 172 228 228 3 3
 167 167 167 167 167 167 181 181 181 181 141 141 141 69 69 69 201 43 43 43
 172 172 172 172 238 238 3 3 3 3 219 219 219 219 219 181 181 181 181 181
 181 181 76 76 76 106 106 106 43 43 43 238 238 238 107 3 3 3 219 219
 219 219 219 219 181 181 181 181 181 181 65 65 76 106 106 106 106 106 106 14
 14 14 225 107 225 219 219 219 219 219 219 219 219 181 181 181 181 181 65 65
 65 65 106 106 106 106 106 106 14 14 14 225 225 225 225 219 219 219 219 219
 153 153 153 181 181 181 65 65 65 65 65 106 106 106 106 106 106 14 14 14
 225 225 225 225 54 132 132 132 153 153 153 153 153 25 65 65 65 65 65 65
 65 106 106 106 106 106 114 114 225 44 44 44 44 44 54 54 153 153 153 153
 153 153 25 65 65 65 65 65 124 124 124 106 106 106 106 114 114 114 44 44
 44 44 44 54 54 125 153 153 153 153 153 25 65 65 65 65 124 124 124 124
 106 106 106 114 114 114 44 44 44 44 44 44 54 125 125 125 125 125 125 120
 25 25 65 65 124 124 124 124 124 45 45 49 49 114 114 44 44 44 44 44
 44 200 125 125 125 125 125 125 208 208 191 191 65 124 124 124 124 45 45 45
 49 49 49 49 44 242 242 242 211 211 211 125 125 125 125 125 125 208 191 191
 191 191 191 124 124 45 45 45 45 49 49 49 49 242 242 242 242 211 211 211
 211 125 125 125 15 15 15 191 191 191 191 191 191 45 45 45 45 45 49 49
 49 49 242 242 242 242 211 211 211 211 185 185 185 15 15 15 191 191 191 191
 191 60 60 60 45 45 45 98 98 98 129 129 129 242 211 211 211 211 211 185
 185 185 15 15 15 15 191 191 191 191 60 60 60 60 60 98 98 98 98 129
 129 129 242 211 211 211 211 211 185 185 185 15 15 15 15 191 191 191 60 60
 60 60 60 111 111 98 98 98 98 129 98 98 211 211 211 211 185 185 185 245
 245 15 15 15 137 191 191 60 60 60 60 60 111 111 110 98 98 98 98 98
 98 98 211 211 152 245 245 245 245 245 5 5 137 137 137 191 60 60 60 60
 111 111 111 110 110 98 98 98 98 98 152 152 152 152 152 152 245 245 5 5
 5 5 137 137 144 70 93 93 93 93 111 111 110 110 110 98 98 98 152 152
 152 152 152 152 152 5 5 5 5 5 5 5 144 70 93 93 93 93 93 93
 111 110 110 110 244 98 244 152 152 152 152 152 152 152 5 5 5 5 5 5
 5 5 130 93 93 93 93 93 93 111 110 135 244 244 244 244 152 152 152 152
 152 152 152 157 5 5 5 5 5 130 130 130 130 93 93 93 93 134 134 134
 134 244 244 244 48 27 229 229 229 229 229 229 157 157 5 5 5 130 130 130
 130 130 93 93 93 134 134 134 134 134 134 244 48 48 27 27 229 229 229 229
 229 73 100 100 100 100 130 130 130 130 130 201 201 201 201 134 134 134 134 48
 48 48 48 27 27 229 229 229 229 229 73 100 100 100 100 100 130 130 130 130
 201 201 201 201 201 134 134 134 48 48 48 48 27 27 27 229 229 229 229 78
 100 100 100 100 100 100 130 130 205 201 201 201 201 201 134 134 48 48 48 48
 48 27 27 27 27 27 229 78 78 78 100 100 100 100 100 141 141 141 201 201
 201 201 201 201 134 48 48 48 48 139 228 27 27 27 167 167 167 78 78 78
 100 100 100 141 141 141 141 201 201 201 201 201 201 201 139 139 139 139 139 228
 228 3 3 3 167 167 167 78 78 78 100 100 141 141 141 141 201 201 201 201
 201 201 201 139 139 139 139 139 228 3 3 3 3 167 167 167 167 78 78 100
 181 141 141 141 141 201 201 201 201 213 213 172 172 139 139 139 172 3 3 3
 3 3 167 167 167 167 78 181 181 181 181 181 141 141 76 201 213 213 213 43
 43 172 172 172 172 238 238 3 3 3 3 219 219 219 219 219 181 181 181 181
 181 181 76 76 76 76 213 106 106 106 14 238 238 238 238 107 107 95 95 219
 219 219 219 219 219 181 181 181 181 181 65 65 65 76 76 106 106 106 106 14
 14 14 14 107 107 107 95 95 219 219 219 219 219 219 181 181 181 181 65 65
 65 65 65 106 106 106 106 106 106 14 14 14 107 107 107 107 54 54 219 219
 219 153 153 153 153 181 65 65 65 65 65 65 65 106 106 106 106 106 14 14
 14 107 107 107 54 54 54 54 54 153 153 153 153 153 25 65 65 65 65 65
 65 65 106 106 106 106 106 14 14 14 44 44 44 44 54 54 54 54 153 153
 153 153 153 209 65 65 65 65 65 65 182 182 106 106 106 106 114 114 44 44
 44 44 44 54 54 54 54 153 153 153 153 153 209 65 65 65 65 65 124 182
 182 182 182 106 49 114 44 44 44 44 44 44 44 54 54 125 125 125 125 153
 153 209 209 65 65 65 65 124 182 182 182 182 49 49 49 44 44 44 44 44
 44 44 55 55 125 125 125 125 125 125 191 191 191 65 65 24 24 24 182 182
 49 49 49 49 44 44 44 44 44 44 211 55 55 125 125 125 125 125 191 191
 191 191 191 191 24 24 24 24 45 49 49 49 49 49 44 242 242 211 211 211
 211 55 55 125 125 15 15 15 191 191 191 191 191 24 24 24 24 45 49 49
 49 49 49 242 242 242 211 211 211 211 55 185 185 185 15 15 15 191 191 191
 191 191 191 24 24 24 45 49 49 49 129 129 129 129 242 211 211 211 211 211
 185 185 185 185 15 15 15 191 191 191 191 60 60 60 60 60 98 98 98 129
 129 129 129 129 211 211 211 211 211 185 185 185 185 15 15 15 191 191 191 191
 60 60 60 60 60 111 98 98 129 129 129 129 129 67 211 211 211 185 185 185
 185 185 15 15 15 191 191 191 191 60 60 60 60 111 110 110 110 98 129 129
 98 98 67 152 152 152 245 245 245 245 245 245 5 5 70 70 70 70 60 60
 60 111 111 110 110 110 110 98 129 98 98 152 152 152 152 152 245 245 245 245
 5 5 5 70 70 70 70 60 93 93 93 111 110 110 110 110 98 98 98 152
 152 152 152 152 152 152 157 245 5 5 5 5 70 70 70 70 93 93 93 93
 93 110 110 110 110 98 98 244 152 152 152 152 152 152 152 157 157 157 5 5
 5 70 70 70 70 93 93 93 93 93 134 110 110 110 244 244 244 152 152 152
 152 152 152 152 157 157 157 157 5 5 130 130 130 130 93 93 93 93 134 134
 134 134 134 244 244 27 27 27 27 152 152 152 157 157 157 157 157 100 130 130
 130 130 130 93 93 201 134 134 134 134 134 134 48 48 27 27 27 27 229 229
 229 229 157 157 100 100 100 100 130 130 130 130 201 201 201 134 134 134 134 134
 48 48 48 48 27 27 27 27 229 229 229 157 100 100 100 100 100 100 130 190
 190 201 201 201 201 134 134 134 134 48 48 48 48 27 27 27 27 27 229 78
 78 100 100 100 100 100 100 190 190 190 201 201 201 201 201 134 134 48 48 48
 48 48 27 27 27 27 27 27 78 78 78 100 100 100 100 100 190 190 190 201
 201 201 201 201 201 134 48 48 48 48 139 27 18 18 27 27 167 78 78 78
 78 100 100 100 100 190 190 190 201 201 201 201 201 201 139 139 139 139 139 139
 18 18 18 3 3 3 167 78 78 78 78 100 100 100 141 141 141 201 201 201
 213 213 213 139 139 139 139 139 139 18 18 3 3 3 3 167 167 78 78 78
 100 100 100 141 141 141 76 213 213 213 213 213 139 139 139 139 139 139 3 3
 3 3 3 3 219 219 167 78 78 181 181 181 181 141 76 76 76 213 213 213
 213 43 139 139 139 139 238 238 3 3 3 3 219 219 219 219 219 181 181 181
 181 181 76 76 76 76 76 213 213 106 106 238 238 238 238 238 107 107 95 95
 95 219 219 219 219 219 26 181 181 181 65 76 76 76 76 76 76 106 106 106
 14 14 238 238 107 107 107 95 95 95 219 219 219 219 219 153 181 181 65 65
 65 65 76 76 76 106 106 106 106 14 14 14 14 107 107 107 107 54 54 54
 219 219 153 153 153 153 65 65 65 65 65 65 65 76 106 106 106 106 106 14
 14 14 107 107 107 54 54 54 54 54 153 153 153 153 153 209 65 65 65 65
 65 65 76 106 106 106 106 106 14 14 14 107 107 44 54 54 54 54 54 153
 153 153 153 153 209 209 65 65 65 65 65 182 182 182 106 106 106 14 14 14
 44 44 44 44 54 54 54 54 37 153 153 153 209 209 209 65 65 65 65 65
 182 182 182 182 106 49 49 44 44 44 44 44 44 54 54 54 55 125 125 125
 153 209 209 209 65 65 65 24 24 182 182 182 182 49 49 49 44 44 44 44
 44 44 54 55 55 55 125 125 125 125 209 209 209 65 65 24 24 24 24 182
 182 182 49 49 49 44 44 44 44 44 44 55 55 55 55 125 125 125 176 237
 237 191 191 191 24 24 24 24 24 24 49 49 49 49 49 179 44 44 44 211
 211 55 55 55 55 125 15 15 237 237 191 191 191 191 24 24 24 24 24 49
 49 49 49 49 179 129 67 211 211 211 40 55 55 55 185 15 15 15 237 237
 237 237 191 24 24 24 24 24 49 49 49 129 129 129 129 67 67 67 40 40
 40 185 185 185 185 15 15 237 237 237 237 237 237 203 203 203 203 203 98 129
 129 129 129 129 67 67 67 40 40 40 185 185 185 185 15 15 15 237 237 237
 237 237 203 203 203 203 110 110 129 129 129 129 129 67 67 67 40 40 40 185
 185 185 185 15 15 15 237 237 237 237 60 60 203 203 203 110 110 110 129 129
 129 129 67 67 67 40 40 40 245 245 245 245 245 5 70 70 70 70 70 60
 60 203 203 111 110 110 110 110 129 129 129 67 67 152 152 152 152 245 245 245
 245 245 5 70 70 70 70 70 70 93 93 93 111 110 110 110 110 98 129 129
 152 152 152 152 152 152 157 157 157 157 157 5 70 70 70 70 70 70 93 93
 93 93 110 110 110 110 110 129 152 152 152 152 152 152 152 157 157 157 157 157
 157 70 70 70 70 70 93 93 93 93 134 134 110 110 110 110 244 113 113 113
 113 152 152 152 157 157 157 157 157 157 70 70 70 70 70 186 186 93 134 134
 134 134 134 134 48 48 27 27 27 113 113 113 152 157 157 157 157 157 157 157
 130 130 130 186 186 186 186 134 134 134 134 134 134 48 48 27 27 27 27 27
 27 27 157 157 157 157 100 100 100 190 190 190 190 186 186 186 134 134 134 134
 134 48 48 48 27 27 27 27 27 27 27 157 157 100 100 100 100 100 190 190
 190 190 186 186 201 201 134 134 134 134 48 48 48 27 27 27 27 27 27 27
 78 78 100 100 100 100 100 190 190 190 190 201 201 201 201 201 134 134 48 48
 48 48 27 27 27 27 27 27 27 78 78 78 100 100 100 100 190 190 190 190
 201 201 201 201 201 201 134 48 48 48 48 139 18 18 18 18 27 27 78 78
 78 78 100 100 100 190 190 190 190 23 201 201 201 201 201 139 139 139 139 139
 139 18 18 18 18 3 3 78 78 78 78 100 100 100 190 190 190 23 23 213
 213 213 213 213 139 139 139 139 139 163 18 18 3 3 3 3 3 78 78 78
 100 100 100 190 190 190 76 76 213 213 213 213 213 213 163 139 139 139 163 18
 18 3 3 3 3 219 219 78 78 100 181 181 181 181 76 76 76 76 213 213
 213 213 163 163 238 238 238 238 238 95 95 95 95 95 219 219 26 26 26 26
 26 181 76 76 76 76 76 76 213 213 213 238 238 238 238 238 238 107 107 95
 95 95 95 219 219 26 26 26 26 26 181 76 76 76 76 76 76 76 106 106
 106 14 238 238 238 107 107 107 95 95 95 95 219 219 26 26 26 26 65 65
 65 65 76 76 76 76 76 106 106 106 14 14 14 14 107 107 107 107 54 54
 54 54 219 26 153 153 153 65 65 65 65 65 65 76 76 76 106 106 106 14
 14 14 14 107 107 107 54 54 54 54 54 37 37 153 153 153 209 65 65 65
 65 65 65 76 76 106 106 106 106 14 14 107 107 107 107 54 54 54 54 54
 37 37 37 153 209 209 209 65 65 65 65 65 182 182 182 182 106 148 14 14
 107 44 44 44 54 54 54 54 54 37 37 37 37 209 209 209 65 65 65 65
 24 182 182 182 182 182 148 148 179 179 44 44 44 44 54 54 54 55 37 37
 37 37 209 209 209 209 65 65 24 24 182 182 182 182 182 49 50 179 179 179
 44 44 44 54 55 55 55 55 37 176 176 176 209 209 237 65 24 24 24 24
 182 182 182 49 49 50 179 179 179 179 44 44 55 55 55 55 55 55 176 176
 176 237 237 237 237 24 24 24 24 24 24 24 49 49 50 50 179 179 179 67
 67 67 55 55 55 55 55 176 176 176 237 237 237 237 237 24 24 24 24 24
 24 49 49 50 50 179 179 67 67 67 67 40 55 55 55 55 176 176 237 237
 237 237 237 237 24 24 24 24 24 24 243 49 129 129 129 67 67 67 67 40
 40 40 40 185 185 185 15 15 237 237 237 237 237 237 203 203 203 203 203 243
 243 129 129 129 67 67 67 67 40 40 40 40 185 185 185 15 15 237 237 237
 237 237 237 203 203 203 203 203 243 243 129 129 129 67 67 67 67 40 40 40
 86 86 86 185 15 15 15 237 237 237 237 203 203 203 203 203 203 243 243 129
 129 129 67 67 67 67 67 40 40 86 86 86 86 86 15 70 70 70 70 70
 70 203 203 203 203 110 110 110 110 129 129 197 67 67 67 67 152 152 86 86
 86 86 86 70 70 70 70 70 70 70 70 203 203 203 110 110 110 231 231 129
 197 197 113 113 152 152 152 157 157 157 157 157 70 70 70 70 70 70 70 70
 239 239 239 231 231 231 231 231 231 113 113 113 113 113 152 157 157 157 157 157
 157 157 70 70 70 70 70 70 186 186 239 134 231 231 231 231 231 231 113 113
 113 113 113 113 157 157 157 157 157 157 157 70 70 70 70 70 186 186 186 134
 134 134 134 231 231 231 231 113 113 113 113 113 113 113 157 157 157 157 157 157
 70 70 70 70 186 186 186 186 186 134 134 134 134 134 48 48 27 27 27 27
 113 113 27 157 157 157 157 157 100 100 190 190 190 186 186 186 186 186 134 134
 134 134 134 48 48 27 27 27 27 27 27 27 157 157 157 100 100 100 100 190
 190 190 190 186 186 186 186 134 134 134 134 48 48 48 27 27 27 27 27 27
 27 27 78 100 100 100 100 100 190 190 190 190 186 186 186 186 134 134 134 48
 48 48 48 27 27 27 27 27 27 27 78 78 78 100 100 100 100 190 190 190
 23 23 23 201 201 201 134 134 48 48 48 48 27 18 18 18 18 18 27 78
 78 78 78 100 100 100 190 190 23 23 23 23 213 213 213 213 139 139 139 139
 163 163 18 18 18 18 3 3 78 78 78 78 100 100 100 190 23 23 23 23
 213 213 213 213 213 213 163 163 163 163 163 18 18 18 3 3 3 3 78 78
 78 100 100 100 220 220 23 76 76 213 213 213 213 213 213 163 163 163 163 163
 18 18 3 3 3 3 3 219 26 26 26 26 220 220 220 76 76 76 76 213
 213 213 213 163 163 163 163 163 238 238 95 95 95 95 95 95 26 26 26 26
 26 26 1 76 76 76 76 76 76 76 76 76 163 163 238 238 238 238 107 107
 95 95 95 95 95 26 26 26 26 26 26 1 76 76 76 76 76 76 76 76
 106 14 14 238 238 238 107 107 107 95 95 95 95 95 26 26 26 26 26 26
 65 65 76 76 76 76 76 76 76 148 148 14 14 14 14 107 107 107 107 54
 54 54 54 26 26 26 26 26 177 65 65 65 65 76 76 76 76 76 148 148
 14 14 14 14 107 107 107 54 54 54 54 54 37 37 37 37 177 177 65 65
 65 65 65 76 76 76 148 148 148 148 14 14 107 107 107 107 54 54 54 54
 54 37 37 37 37 209 209 209 65 65 65 65 24 24 182 148 148 148 148 148
 14 107 179 44 44 54 54 54 54 54 37 37 37 37 209 209 209 209 65 65
 24 24 24 182 182 148 148 148 148 179 179 179 179 44 54 54 54 54 55 37
 37 37 37 176 209 209 209 65 24 24 24 24 182 182 182 148 148 50 179 179
 179 179 179 44 54 55 55 55 55 37 176 176 176 176 209 237 24 24 24 24
 24 24 182 182 148 50 50 50 179 179 179 179 179 55 55 55 55 55 176 176
 176 176 176 237 237 237 24 24 24 24 24 24 24 49 50 50 50 179 179 179
 67 67 67 55 55 55 55 176 176 176 176 237 237 237 237 237 24 24 24 24
 24 24 50 50 50 50 179 179 67 67 67 67 67 55 55 55 176 176 176 176
 237 237 237 237 237 24 24 24 203 203 203 243 243 50 50 179 67 67 67 67
 67 40 40 55 55 176 185 15 237 237 237 237 237 237 237 203 203 203 203 203
 243 243 243 129 129 67 67 67 67 67 40 40 40 86 86 86 15 237 237 237
 237 237 237 203 203 203 203 203 243 243 243 243 129 129 67 67 67 67 67 40
 40 86 86 86 86 86 15 237 237 237 237 237 203 203 203 203 203 243 243 243
 243 129 129 67 67 67 67 67 67 150 86 86 86 86 86 104 104 70 70 70
 70 70 203 203 203 203 203 243 243 231 231 129 197 67 67 67 67 67 150 150
 86 86 86 86 86 70 70 70 70 70 70 203 239 239 239 231 231 231 231 231
 231 197 197 67 67 67 150 150 150 157 157 157 157 70 70 70 70 70 70 70
 70 239 239 239 231 231 231 231 231 231 197 113 113 113 113 113 150 157 157 157
 157 157 157 70 70 70 70 70 70 186 239 239 239 231 231 231 231 231 231 113
 113 113 113 113 113 157 157 157 157 157 157 157 70 70 70 70 70 186 186 186
 239 239 231 231 231 231 231 231 113 113 113 113 113 113 113 157 157 157 157 157
 157 70 33 33 33 186 186 186 186 186 134 134 134 231 231 231 231 27 27 27
 113 113 113 113 157 52 52 52 52 100 190 190 190 190 186 186 186 186 186 134
 134 134 134 134 48 48 27 27 27 27 27 27 27 52 52 52 52 100 100 190
 190 190 190 186 186 186 186 186 134 134 118 118 118 48 48 27 27 27 27 27
 27 27 27 52 52 100 100 100 190 190 190 190 23 186 186 186 186 134 118 118
 118 118 48 48 27 27 27 27 27 27 27 27 78 78 100 100 100 190 190 190
 23 23 23 23 186 213 213 118 118 118 163 163 163 163 27 18 18 18 18 27
 78 78 78 78 100 100 190 190 23 23 23 23 23 213 213 213 118 118 163 163
 163 163 163 18 18 18 18 18 3 149 78 78 78 149 100 190 190 23 23 23
 23 23 213 213 213 213 163 163 163 163 163 163 18 18 18 3 3 3 3 149
 26 26 26 26 220 220 220 23 23 76 76 213 213 213 213 163 163 163 163 163
 163 163 18 3 3 3 3 3 26 26 26 26 26 220 220 220 76 76 76 76
 76 213 213 213 163 163 163 163 163 238 238 95 95 95 95 95 26 26 26 26
 26 26 1 1 1 76 76 76 76 76 76 76 76 163 163 163 163 163 238 107
 107 95 95 95 95 26 26 26 26 26 26 1 1 1 1 76 76 76 76 76
 76 76 148 14 14 238 238 107 107 107 95 95 95 95 26 26 26 26 26 26
 1 1 1 76 76 76 76 76 76 76 148 148 148 14 14 14 107 107 107 107
 54 54 54 26 26 26 26 26 177 177 177 65 65 76 76 76 76 76 148 148
 148 148 14 14 14 107 107 107 54 54 54 54 54 37 37 37 37 177 177 177
 65 65 65 76 76 76 148 148 148 148 148 148 14 14 107 107 54 54 54 54
 54 37 37 37 37 37 177 177 177 65 65 65 24 24 24 148 148 148 148 148
 148 148 148 179 179 54 54 169 169 169 37 37 37 37 37 177 177 209 65 65
 24 24 24 24 24 148 148 148 148 148 148 179 179 179 179 169 169 169 169 169
 37 37 37 176 207 207 207 209 24 24 24 24 24 24 24 148 148 148 50 50
 179 179 179 179 169 169 169 169 55 55 176 176 176 176 176 207 237 24 24 24
 24 24 24 24 24 148 50 50 50 179 179 179 179 169 169 169 169 55 55 176
 176 176 176 176 237 237 237 24 24 24 24 24 24 24 148 50 50 50 179 179
 179 67 67 232 232 232 55 55 176 176 176 176 176 237 237 237 24 24 24 24
 24 24 24 50 50 50 50 179 179 67 67 67 67 232 232 55 55 176 176 176
 176 237 237 237 237 237 24 24 24 203 203 203 243 243 50 50 179 67 67 67
 67 67 67 67 67 86 176 176 176 237 237 237 237 237 237 237 203 203 203 203
 203 243 243 243 50 179 67 67 67 67 67 67 67 86 86 86 86 86 104 104
 237 237 237 237 203 203 203 203 203 243 243 243 243 243 129 67 67 67 67 67