# vtk DataFile Version 2.0
Data set from ImportExport Version 6.5.171.b0b162591
ASCII

DATASET RECTILINEAR_GRID
DIMENSIONS 30 30 30
X_COORDINATES 30 float
-1.250000 1.250000 3.750000 6.250000 8.750000 11.250000 13.750000 16.250000 18.750000 21.250000 23.750000 26.250000 28.750000 31.250000 33.750000 36.250000 38.750000 41.250000 43.750000 46.250000 48.750000 
51.250000 53.750000 56.250000 58.750000 61.250000 63.750000 66.250000 68.750000 71.250000 
Y_COORDINATES 30 float
-1.250000 1.250000 3.750000 6.250000 8.750000 11.250000 13.750000 16.250000 18.750000 21.250000 23.750000 26.250000 28.750000 31.250000 33.750000 36.250000 38.750000 41.250000 43.750000 46.250000 48.750000 
51.250000 53.750000 56.250000 58.750000 61.250000 63.750000 66.250000 68.750000 71.250000 
Z_COORDINATES 30 float
-1.250000 1.250000 3.750000 6.250000 8.750000 11.250000 13.750000 16.250000 18.750000 21.250000 23.750000 26.250000 28.750000 31.250000 33.750000 36.250000 38.750000 41.250000 43.750000 46.250000 48.750000 
51.250000 53.750000 56.250000 58.750000 61.250000 63.750000 66.250000 68.750000 71.250000 
CELL_DATA 24389
SCALARS FeatureIds int 1
LOOKUP_TABLE default
 182 182 182 182 182 95 95 58 58 162 162 162 162 162 26 26 26 26 26 26
 159 245 245 245 245 245 245 182 182 182 182 182 182 95 95 95 58 58 58 123
 123 123 123 121 26 26 26 26 159 159 159 159 159 245 245 245 182 182 182 182
 182 33 95 95 95 58 58 58 58 123 123 123 121 26 26 26 26 159 159 159
 159 159 159 159 182 182 182 179 179 33 33 33 95 95 58 58 58 58 58 58
 58 121 26 26 26 26 159 159 159 159 159 159 159 159 179 179 179 179 33 33
 33 95 95 58 58 58 58 58 58 58 121 26 26 26 159 159 159 159 159 159
 159 150 150 179 179 179 179 33 33 33 95 95 58 58 58 58 58 58 58 5
 5 26 26 159 159 159 159 159 159 150 150 150 241 179 179 179 33 33 33 95
 95 58 58 58 58 58 58 5 5 5 5 5 159 159 159 159 159 150 150 150
 241 241 241 154 154 154 154 33 95 95 58 58 58 58 58 5 5 5 5 5
 5 5 137 137 137 137 150 150 150 150 150 150 154 154 154 154 154 154 95 58
 58 58 58 5 5 5 5 5 5 5 5 137 137 137 137 150 150 150 150 150
 150 154 154 154 154 154 154 62 62 62 58 5 5 5 5 5 5 5 5 5
 137 137 137 137 169 150 150 150 150 154 154 154 154 154 154 154 62 62 62 62
 5 5 5 5 5 5 215 5 217 137 137 137 169 169 169 169 150 154 154 154
 154 154 154 154 154 62 62 62 62 62 7 7 5 5 221 215 5 170 170 170
 169 169 169 169 169 169 154 154 154 154 154 154 154 154 62 62 62 62 190 190
 190 190 5 221 215 170 170 170 170 170 169 169 169 169 169 154 154 154 154 154
 154 154 161 161 161 161 161 190 190 190 190 190 190 190 170 170 170 170 170 170
 184 184 184 184 154 154 154 154 154 154 161 161 161 161 161 161 57 140 140 190
 190 190 190 170 170 170 170 170 170 184 184 184 129 129 129 154 154 154 161 161
 161 161 161 161 161 57 140 140 140 140 140 140 92 92 170 130 130 184 184 184
 184 129 129 129 39 39 39 161 161 161 161 161 161 161 140 140 140 140 140 140
 94 94 139 130 130 130 130 184 184 129 129 129 129 39 39 39 176 176 161 161
 161 240 240 240 140 140 140 66 66 94 94 139 139 139 130 130 184 184 129 129
 129 39 39 39 39 176 176 176 161 240 240 240 240 140 66 66 66 66 94 94
 139 139 139 139 139 139 184 39 39 39 39 39 39 39 176 176 176 176 240 240
 240 240 66 66 66 66 66 94 94 139 139 139 139 139 139 73 39 39 39 39
 39 39 39 176 176 176 176 240 240 240 240 66 66 66 66 66 94 94 139 139
 139 139 139 13 73 73 39 39 39 250 250 250 176 176 120 136 240 240 240 240
 220 66 66 66 66 94 94 139 139 139 139 13 13 73 73 39 39 39 250 250
 250 250 120 120 120 120 240 240 240 220 220 236 66 66 94 94 139 139 139 13
 13 13 73 13 13 250 250 250 250 250 250 120 120 120 120 120 240 240 220 220
 84 84 84 84 84 38 38 38 180 13 13 13 13 13 250 250 250 250 250 250
 120 120 120 120 120 162 162 162 84 84 84 84 84 84 38 38 38 180 180 13
 13 13 13 250 250 250 250 250 250 120 120 120 120 120 162 162 162 162 84 84
 84 84 84 38 38 38 180 180 245 245 245 245 132 132 11 11 11 11 61 61
 61 61 162 162 162 162 162 84 84 84 56 56 56 38 38 207 245 245 245 245
 245 132 132 11 11 11 11 61 61 61 61 162 162 162 162 162 162 84 84 56
 56 56 56 207 207 245 245 245 245 245 245 11 182 11 11 11 61 61 61 61
 162 162 162 162 162 162 84 56 56 56 56 56 207 207 245 245 245 245 245 182
 182 182 182 182 182 182 51 51 51 51 51 162 162 162 162 26 26 26 56 56
 159 159 245 245 245 245 245 245 182 182 182 182 182 182 95 95 95 51 51 51
 205 205 205 205 121 26 26 26 26 159 159 159 159 159 159 245 182 182 182 182
 182 182 182 95 95 95 51 51 58 205 205 205 205 26 26 26 26 26 159 159
 159 159 159 159 159 182 182 182 179 179 179 33 95 95 95 95 58 58 58 58
 205 205 26 26 26 26 159 159 159 159 159 159 159 159 159 179 179 179 179 179
 33 95 95 95 95 58 58 58 58 239 239 26 26 26 26 159 159 159 159 159
 159 159 150 150 179 179 179 179 179 33 95 95 95 95 58 58 58 239 239 239
 5 5 26 26 159 159 159 159 159 159 150 150 150 150 179 179 179 179 33 95
 95 95 95 58 58 58 239 239 239 5 5 5 145 159 159 159 159 159 150 150
 150 150 150 150 154 154 154 193 193 193 95 95 58 58 58 239 5 5 5 5
 5 5 217 217 137 137 137 150 150 150 150 150 150 154 154 154 154 154 193 62
 62 62 58 7 7 7 7 5 5 5 5 217 217 137 137 137 150 150 150 150
 150 150 154 154 154 154 154 154 62 62 62 62 7 7 7 7 7 5 5 5
 217 217 137 137 137 169 150 150 150 150 154 154 154 154 154 154 154 62 62 62
 62 7 7 7 7 7 7 215 217 217 217 137 137 169 169 169 169 150 154 154
 154 154 154 154 154 62 62 62 62 62 62 7 7 7 7 7 7 63 217 170
 170 169 169 169 169 169 169 154 154 154 154 154 154 154 154 62 62 62 62 190
 190 190 190 7 7 7 63 170 170 170 170 169 169 169 169 169 154 154 154 154
 154 154 154 161 161 161 161 161 190 190 190 190 190 190 190 190 170 170 170 170
 170 184 184 184 129 129 154 154 154 154 154 161 161 161 161 161 161 57 190 190
 190 190 190 190 170 170 170 170 170 170 184 184 184 129 129 129 129 154 154 161
 161 161 161 161 161 161 57 57 140 140 140 190 190 92 92 92 170 170 184 184
 184 129 129 129 129 129 39 39 161 161 161 161 161 161 161 57 140 140 140 140
 140 94 92 92 92 92 92 130 184 184 129 129 129 129 39 39 39 176 176 161
 161 161 240 240 240 140 140 66 66 66 94 94 92 92 92 92 92 184 184 129
 129 129 39 39 39 39 176 176 176 161 240 240 240 240 66 66 66 66 66 94
 94 94 139 139 139 139 139 184 39 39 39 39 39 39 39 176 176 176 161 240
 240 240 240 66 66 66 66 66 94 94 139 139 139 139 139 139 73 39 39 39
 39 39 39 39 176 176 176 176 240 240 240 240 220 66 66 66 66 94 94 139
 139 139 139 139 13 73 39 39 39 39 250 250 250 176 176 120 120 240 240 240
 240 220 220 66 66 66 94 94 139 139 139 139 13 13 73 73 39 39 39 250
 250 250 250 120 120 120 120 240 240 220 220 220 66 66 66 94 94 139 139 139
 13 13 13 73 13 13 250 250 250 250 250 250 120 120 120 120 120 240 220 220
 220 220 84 84 84 38 38 38 38 180 180 180 180 13 250 250 250 250 250 250
 250 120 120 120 120 120 104 104 104 104 200 84 84 84 38 38 38 38 180 180
 180 180 13 13 250 250 132 132 132 132 120 120 120 120 120 104 104 104 104 200
 84 84 84 38 38 38 38 180 180 180 245 245 245 132 132 11 11 11 132 132
 61 120 120 162 162 162 162 162 200 84 84 56 56 38 38 38 207 245 245 245
 245 245 132 132 11 11 11 11 61 61 61 61 162 162 162 162 162 162 84 56
 56 56 56 56 207 207 245 245 245 245 245 132 11 182 11 11 11 11 61 51
 51 162 162 162 162 162 162 84 56 56 56 56 56 207 207 245 245 245 245 245
 245 182 182 182 182 182 182 51 51 51 51 51 205 205 205 205 205 26 56 56
 56 159 159 245 245 245 245 245 245 182 182 182 182 182 182 95 51 51 51 51
 51 205 205 205 205 205 26 26 26 26 159 159 159 159 159 245 245 245 182 182
 182 182 182 182 95 95 51 51 51 51 205 205 205 205 205 26 26 26 159 159
 159 159 159 159 159 159 100 182 182 179 179 179 182 95 95 95 51 51 51 205
 205 205 205 205 26 26 26 159 159 159 159 159 159 159 100 100 179 179 179 179
 179 95 95 95 95 95 58 58 239 239 239 239 239 26 26 26 159 159 159 159
 159 159 159 100 100 179 179 179 179 179 95 95 95 95 95 58 58 239 239 239
 239 239 145 145 145 159 159 159 159 159 159 150 150 150 150 179 179 179 179 193
 193 95 95 95 58 58 239 239 239 239 239 145 145 145 217 159 159 159 159 150
 150 150 150 150 150 154 154 193 193 193 193 193 62 62 58 239 239 7 7 7
 63 63 217 217 217 217 137 137 150 150 150 150 150 150 154 154 154 154 193 193
 62 62 62 62 7 7 7 7 7 63 63 63 217 217 217 137 137 241 241 150
 150 150 150 154 154 154 154 154 62 62 62 62 62 7 7 7 7 7 7 63
 63 217 217 217 137 137 169 150 150 150 150 154 154 154 154 154 154 62 62 62
 62 62 7 7 7 7 7 7 63 63 217 217 217 137 169 169 169 169 150 154
 154 154 154 154 154 154 62 62 62 62 62 62 7 7 7 7 7 63 63 217
 217 170 169 169 169 169 169 169 154 154 154 154 154 154 154 62 62 62 62 62
 62 190 190 190 7 7 105 63 217 170 170 170 169 169 169 169 169 154 154 154
 154 154 154 154 161 161 161 161 62 190 190 190 190 190 105 105 105 178 170 170
 170 184 184 184 184 184 154 154 154 154 154 154 161 161 161 161 161 57 57 57
 190 190 190 105 105 178 178 170 170 170 184 184 184 184 129 129 129 129 154 154
 161 161 161 161 161 161 57 57 57 57 190 190 190 190 92 92 92 92 170 184
 184 184 184 129 129 129 39 39 39 161 161 161 161 161 161 57 57 57 57 140
 140 190 92 92 92 92 92 92 184 184 184 129 129 129 129 39 39 39 176 161
 161 161 161 161 240 240 140 66 66 66 66 94 92 92 92 92 92 92 184 184
 129 129 129 39 39 39 39 176 176 176 161 240 240 240 240 66 66 66 66 66
 94 94 92 92 92 92 92 92 184 39 39 39 39 39 39 39 176 176 176 161
 240 240 240 240 220 66 66 66 66 94 94 139 139 139 139 139 139 139 39 39
 39 39 39 39 39 176 176 176 176 240 240 240 220 220 66 66 66 66 94 94
 139 139 139 139 139 139 73 39 39 39 39 39 39 39 176 120 120 120 240 240
 240 220 220 220 66 66 66 94 94 139 139 139 139 139 13 73 64 39 39 39
 250 250 250 250 120 120 120 120 240 240 220 220 220 220 66 66 94 94 139 139
 139 180 180 180 180 13 250 250 250 250 250 250 250 120 120 120 120 120 104 104
 220 220 220 66 79 79 38 38 38 180 180 180 180 180 180 250 250 250 132 132
 132 132 120 120 120 120 120 104 104 104 104 200 200 79 79 38 38 38 180 180
 180 180 180 180 132 132 132 132 132 132 132 132 120 120 120 104 104 104 104 104
 200 200 200 79 38 38 38 38 180 180 180 245 245 245 132 132 132 132 132 132
 132 120 120 120 104 104 104 104 104 200 200 56 56 56 56 38 38 180 180 245
 245 245 245 132 132 11 11 11 132 132 51 51 51 162 162 162 162 162 162 84
 56 56 56 56 56 207 207 245 245 245 245 245 132 132 182 11 11 11 11 51
 51 51 51 162 162 162 162 162 162 56 56 56 56 56 207 207 245 245 245 245
 245 132 182 182 182 182 182 51 51 51 51 51 51 205 205 205 205 205 26 56
 56 56 159 159 245 245 245 245 245 245 182 182 182 182 182 182 95 51 51 51
 51 51 205 205 205 205 205 26 26 26 159 159 159 159 159 159 245 245 182 182
 182 182 182 182 182 95 51 51 51 51 51 205 205 205 205 205 26 26 26 159
 159 159 159 159 159 159 100 100 182 182 179 179 182 182 95 95 51 51 51 51
 205 205 239 239 239 239 26 26 159 159 159 159 159 159 100 100 100 100 179 179
 179 179 95 95 95 95 51 51 239 239 239 239 239 239 239 145 145 159 159 159
 159 159 100 100 100 100 100 179 179 179 179 193 95 95 95 95 51 239 239 239
 239 239 239 145 145 145 145 159 159 159 159 100 100 100 100 100 100 193 193 193
 193 193 193 193 193 198 239 239 239 239 239 239 145 145 145 145 145 159 159 159
 100 100 100 100 100 100 193 193 193 193 193 193 193 193 62 198 239 239 239 239
 63 63 63 145 145 217 217 217 23 150 150 150 150 150 150 154 193 193 193 193
 193 193 62 62 62 7 7 7 7 7 63 63 63 217 217 217 217 23 23 150
 150 150 150 150 154 154 154 154 193 62 62 62 62 62 7 7 7 7 7 63
 63 63 217 217 217 217 23 23 173 173 173 150 154 154 154 154 32 32 62 62
 62 62 62 62 7 7 7 7 63 63 63 217 217 217 217 169 169 169 173 173
 154 154 154 154 154 32 32 62 62 62 62 62 43 7 7 7 7 7 63 63
 63 217 217 169 169 169 169 169 173 154 154 154 154 154 32 32 62 62 62 62
 62 43 190 190 7 7 105 105 63 63 170 170 170 169 169 169 169 169 154 154
 154 154 154 154 41 161 161 62 62 43 43 43 190 190 190 105 105 178 178 178
 170 170 184 184 184 184 184 154 154 154 154 154 41 41 161 161 161 161 57 57
 57 190 190 190 105 105 178 178 178 178 170 184 184 184 184 129 129 129 129 154
 154 41 41 161 161 161 161 57 57 57 57 190 190 190 178 178 178 92 92 178
 184 184 184 184 129 129 129 39 39 39 161 161 161 161 161 161 57 57 57 57
 140 190 190 92 92 92 92 92 92 92 184 184 129 129 129 129 39 39 39 176
 161 161 161 161 21 21 57 57 66 66 66 66 92 92 92 92 92 92 92 92
 184 129 129 129 39 39 39 39 176 176 176 161 240 240 240 240 220 66 66 66
 66 94 92 92 92 92 92 92 92 92 64 39 39 39 39 39 39 176 176 176
 161 240 240 240 220 220 66 66 66 66 94 94 92 92 92 92 92 92 64 64
 39 39 39 39 39 39 176 176 176 176 240 240 240 220 220 220 66 66 66 94
 94 139 139 139 139 139 139 64 64 64 39 39 39 39 39 176 120 120 120 240
 240 220 220 220 220 66 66 66 94 94 139 139 139 139 180 180 64 64 64 64
 39 250 250 250 132 120 120 120 120 240 220 220 220 220 220 66 79 79 79 139
 139 139 180 180 180 64 64 64 64 250 132 132 132 132 120 120 120 120 120 104
 104 220 220 200 79 79 79 79 191 191 180 180 180 180 180 64 132 132 132 132
 132 132 132 132 120 120 120 104 104 104 104 104 200 200 79 79 79 191 191 180
 180 180 180 180 180 132 132 132 132 69 132 132 132 120 120 120 104 104 104 104
 104 200 200 79 79 79 191 191 191 180 180 180 131 245 132 132 132 132 132 132
 132 132 132 120 104 104 104 104 104 104 200 200 79 79 56 191 191 191 180 180
 245 245 245 245 132 132 132 132 132 132 132 132 51 51 51 104 104 104 104 200
 79 79 56 56 56 191 191 245 245 245 245 245 245 132 132 132 132 132 132 132
 51 51 51 51 51 205 205 205 162 79 56 56 56 56 56 207 245 245 245 245
 245 245 132 132 182 182 182 182 51 51 51 51 51 51 205 205 205 205 205 205
 56 56 56 159 159 245 245 245 245 245 245 182 182 182 182 182 78 51 51 51
 51 51 51 205 205 205 205 205 205 26 26 159 159 159 159 159 159 245 100 100
 182 182 182 182 78 78 78 51 51 51 51 51 205 205 205 205 205 205 26 26
 159 159 159 159 159 159 100 100 100 100 182 179 78 78 78 78 51 51 51 51
 51 239 239 239 239 239 239 145 145 159 159 159 159 159 100 100 100 100 100 100
 179 179 78 78 78 95 51 51 51 239 239 239 239 239 239 239 145 145 145 159
 159 159 159 100 100 100 100 100 100 193 193 193 193 193 193 193 198 198 239 239
 239 239 239 239 145 145 145 145 145 159 159 100 100 100 100 100 100 100 193 193
 193 193 193 193 193 193 198 239 239 239 239 239 239 145 145 145 145 145 145 159
 100 100 100 100 100 100 100 193 193 193 193 193 193 193 193 198 198 239 239 239
 239 63 63 145 145 145 145 217 217 23 23 100 100 100 100 100 193 193 193 193
 193 193 193 62 62 198 7 7 7 7 63 63 63 63 63 217 217 217 23 23
 23 173 173 173 40 40 40 193 193 193 193 62 62 62 62 7 7 7 7 63
 63 63 63 63 217 217 217 23 23 23 173 173 173 173 154 32 32 32 32 32
 62 62 62 62 7 7 7 7 7 63 63 63 63 217 217 217 23 23 23 173
 173 173 154 154 32 32 32 32 32 62 62 62 62 43 7 7 7 7 63 63
 63 63 63 217 217 23 23 23 173 173 173 154 154 32 32 32 32 32 62 62
 62 43 43 43 7 7 190 105 63 63 63 178 178 178 169 169 169 173 173 173
 154 154 32 32 32 41 41 41 62 62 43 43 43 190 190 190 105 105 178 178
 178 178 178 178 184 184 184 173 48 154 154 32 32 41 41 41 41 41 161 43
 43 43 43 190 190 190 178 178 178 178 178 178 178 184 184 184 129 129 48 48
 41 41 41 41 41 41 161 161 57 57 57 57 190 190 190 178 178 178 178 178
 178 178 178 184 184 129 129 129 39 39 41 41 41 41 41 161 21 21 57 57
 57 190 190 190 178 178 178 178 178 178 178 178 178 129 129 129 129 39 39 166
 166 41 41 41 21 21 21 21 21 66 66 66 66 178 92 92 92 92 92 178
 178 178 64 129 129 39 39 39 39 166 166 166 161 21 21 21 21 21 66 66
 66 66 92 92 92 92 92 92 92 92 64 64 64 64 39 39 39 39 166 166
 166 161 21 21 21 220 220 66 66 66 66 94 92 92 92 92 92 92 92 64
 64 64 64 64 39 39 39 176 176 176 176 240 240 220 220 220 220 66 66 66
 233 94 92 92 92 92 92 64 64 64 64 64 64 39 39 39 132 214 120 120
 240 220 220 220 220 220 66 66 79 233 233 233 92 92 92 92 64 64 64 64
 64 64 132 132 132 132 132 120 120 120 220 220 220 220 220 220 79 79 79 79
 191 191 191 191 131 131 64 64 64 64 64 132 132 132 132 132 120 120 120 104
 104 104 220 220 200 79 79 79 79 191 191 191 191 131 131 131 64 64 132 132
 132 132 132 132 132 120 120 86 104 104 104 104 104 200 79 79 79 79 191 191
 191 191 131 131 131 131 132 132 132 132 132 132 132 132 132 86 86 104 104 104
 104 104 200 79 79 79 79 191 191 191 191 131 131 131 131 131 132 132 132 132
 132 132 132 132 86 86 104 104 104 104 104 200 79 79 79 79 191 191 191 191
 131 131 131 131 132 132 132 132 132 132 132 132 132 51 51 51 104 104 104 104
 79 79 79 79 79 191 191 191 191 131 131 131 245 245 132 132 132 132 132 132
 132 51 51 51 51 51 205 205 205 79 79 79 79 56 56 191 191 245 245 245
 245 245 245 132 132 182 78 78 78 78 51 51 51 149 149 149 205 205 205 205
 205 56 56 56 159 159 245 245 245 245 100 100 182 182 78 78 78 78 78 51
 51 51 149 149 149 205 205 205 205 205 249 249 249 159 159 159 159 100 100 100
 100 100 182 78 78 78 78 78 78 51 51 149 149 149 205 239 239 239 249 249
 249 249 159 159 159 100 100 100 100 100 100 100 78 78 78 78 78 78 51 51
 149 149 239 239 239 239 239 249 249 249 249 159 159 234 100 100 100 100 100 100
 100 78 78 78 78 78 78 78 198 198 198 239 239 239 239 239 249 249 249 145
 145 234 234 100 100 100 100 100 100 100 231 193 193 193 193 193 193 198 198 198
 239 239 239 239 239 249 145 145 145 145 145 100 100 100 100 100 100 100 100 193
 193 193 193 193 193 193 198 198 198 198 239 239 239 239 145 145 145 145 145 145
 100 100 100 100 100 100 100 100 193 193 193 193 193 193 193 193 198 198 198 198
 239 239 63 63 145 145 145 63 63 23 23 23 100 100 100 100 40 40 193 193
 193 193 193 193 193 198 198 198 198 7 63 63 63 63 63 63 63 63 23 23
 23 23 173 173 173 40 40 40 40 193 193 193 62 62 96 96 7 7 7 7
 63 63 63 63 63 63 63 23 23 23 23 173 173 173 40 40 40 32 32 32
 32 62 62 62 43 7 7 7 7 63 63 63 63 63 63 63 23 23 23 23
 173 173 173 40 40 32 32 32 32 32 62 62 62 43 43 43 7 7 7 63
 63 63 63 63 63 23 23 23 23 173 173 173 40 40 32 32 32 32 32 62
 62 62 43 43 43 43 43 190 63 63 63 178 178 178 178 108 108 108 108 173
 173 40 48 32 32 32 41 41 41 41 43 43 43 43 43 190 190 190 178 178
 178 178 178 178 108 108 108 108 48 48 48 48 32 32 41 41 41 41 41 41
 43 43 43 43 190 190 190 178 178 178 178 178 178 178 108 108 108 48 48 48
 48 166 166 41 41 41 41 41 21 21 43 43 43 190 190 190 178 178 178 178
 178 178 178 108 108 108 48 48 48 48 166 166 166 41 41 41 41 21 21 21
 21 57 190 190 178 178 178 178 178 178 178 178 178 108 108 48 48 48 166 166
 166 166 166 41 41 21 21 21 21 21 21 66 66 178 178 178 178 178 178 178
 178 178 138 64 64 48 48 166 166 166 166 166 166 41 21 21 21 21 21 21
 66 66 66 178 178 92 92 92 178 178 178 64 64 64 64 64 39 166 166 166
 166 166 166 21 21 21 220 220 220 66 66 233 233 233 92 92 92 92 92 92
 64 64 64 64 64 64 39 214 214 214 214 214 21 21 220 220 220 220 66 66
 233 233 233 233 92 92 92 196 64 64 64 64 64 64 64 214 214 214 214 214
 214 240 220 220 220 220 220 220 79 233 233 233 233 242 242 242 131 64 64 64
 64 64 64 132 132 132 214 214 214 120 86 220 220 220 220 220 79 79 79 233
 233 242 242 242 242 131 131 64 64 64 64 64 132 132 132 132 132 132 86 86
 86 220 220 220 220 79 79 79 79 79 242 242 242 242 131 131 131 114 64 64
 132 246 246 246 132 132 132 86 86 86 104 104 104 104 79 79 79 79 79 191
 191 191 191 131 131 131 131 64 132 132 246 246 246 132 132 86 86 86 86 104
 104 104 104 79 79 79 79 79 191 191 191 191 131 131 131 131 131 132 132 246
 246 246 132 132 86 86 86 86 202 202 202 202 79 79 79 79 79 191 191 191
 191 131 131 131 131 131 132 132 132 246 132 132 132 86 86 86 86 202 202 202
 202 79 79 79 79 79 191 191 191 191 131 131 131 131 131 132 132 132 132 132
 132 132 51 51 51 149 149 202 202 202 79 79 79 79 79 191 191 191 191 131
 131 131 131 131 132 132 88 78 78 78 78 78 51 149 149 149 149 202 202 202
 202 202 249 249 249 68 234 234 102 102 102 102 102 102 88 78 78 78 78 78
 78 51 149 149 149 149 149 205 205 249 249 249 249 249 234 234 234 234 100 100
 100 100 100 88 78 78 78 78 78 78 51 149 149 149 149 149 239 239 249 249
 249 249 249 234 234 234 234 100 100 100 100 100 100 231 78 78 78 78 78 78
 149 149 149 149 239 239 239 249 249 249 249 249 234 234 234 234 100 100 100 100
 100 100 231 231 78 78 78 78 78 198 198 198 198 239 239 239 249 249 249 249
 249 249 234 234 234 100 100 100 100 100 100 231 231 231 78 78 78 78 198 198
 198 198 198 239 239 249 249 249 249 145 145 234 234 234 100 100 100 100 100 100
 231 193 193 193 193 193 193 198 198 198 198 198 239 239 249 249 145 145 145 145
 145 234 234 100 100 100 100 100 100 40 193 193 193 193 193 193 198 198 198 198
 198 198 239 63 63 145 145 145 63 63 23 23 23 100 100 100 100 40 40 40
 40 193 193 193 193 96 198 198 198 198 198 63 63 63 63 63 63 63 63 23
 23 23 173 173 173 173 40 40 40 40 40 193 193 96 96 96 96 198 198 7
 7 63 63 63 63 63 63 63 23 23 23 23 173 173 173 40 40 40 40 32
 32 32 96 96 96 96 96 7 7 7 63 63 63 63 63 63 63 23 23 23
 23 173 173 173 40 40 40 32 32 32 32 96 96 96 96 43 43 43 43 63
 63 63 63 63 63 63 108 108 108 108 173 173 173 40 40 32 32 32 32 32
 96 96 96 43 43 43 43 43 190 55 55 55 178 178 178 108 108 108 108 108
 173 48 40 48 32 32 32 41 41 41 96 96 43 43 43 43 43 190 55 55
 55 178 178 178 178 108 108 108 108 48 48 48 48 48 166 41 41 41 41 41
 96 43 43 43 43 43 190 55 55 178 178 178 178 178 108 108 108 108 48 48
 48 48 166 166 166 41 41 41 41 21 21 43 43 43 43 190 178 178 178 178
 178 178 178 178 108 108 108 48 48 48 48 166 166 166 166 41 41 41 21 21
 21 21 43 43 190 178 178 178 178 178 178 178 178 108 108 108 48 48 48 48
 166 166 166 166 166 41 21 21 21 21 21 21 21 44 44 44 178 178 178 178
 178 178 138 138 138 48 48 48 166 166 166 166 166 166 41 21 21 21 21 21
 21 21 44 44 44 178 178 178 178 178 178 138 138 64 64 64 64 166 166 166
 166 166 166 166 21 21 21 21 21 21 66 233 233 233 233 233 233 92 92 196
 196 64 64 64 64 64 64 214 214 214 214 214 214 21 21 220 220 220 220 223
 233 233 233 233 233 233 233 83 196 196 64 64 64 64 64 64 214 214 214 214
 214 214 195 195 220 220 220 220 223 233 233 233 233 233 233 242 242 196 196 64
 64 64 64 64 214 214 214 214 214 214 214 195 195 113 113 113 113 113 79 233
 233 233 242 242 242 242 242 114 114 64 64 64 64 246 246 132 132 214 86 86
 86 86 113 113 113 113 79 79 79 79 242 242 242 242 242 131 114 114 114 114
 64 64 246 246 246 132 132 86 86 86 86 86 113 113 113 79 79 79 79 79
 191 191 191 191 131 131 114 114 114 64 246 246 246 246 246 132 86 86 86 86
 86 202 202 202 79 79 79 79 79 191 191 191 191 131 131 131 114 114 246 246
 246 246 246 246 246 86 86 86 86 202 202 202 202 79 79 79 79 79 191 191
 191 191 131 131 131 114 171 132 132 88 88 88 88 88 86 86 86 86 202 202
 202 202 202 79 79 79 79 191 191 191 191 131 131 131 171 171 132 132 88 88
 88 88 88 51 51 149 149 149 202 202 202 202 79 79 79 79 191 191 191 191
 131 131 131 171 102 88 88 88 88 88 78 78 78 149 149 149 149 149 202 202
 202 202 202 249 249 249 68 234 234 102 102 102 102 102 102 88 88 78 78 78
 78 78 78 149 149 149 149 149 202 202 202 249 249 249 249 234 234 234 234 234
 102 102 102 102 88 78 78 78 78 78 78 78 149 149 149 149 149 239 239 249
 249 249 249 249 234 234 234 234 234 234 188 188 188 133 231 78 78 78 78 78
 78 149 149 149 149 149 239 239 249 249 249 249 249 234 234 234 234 234 188 188
 188 188 188 231 231 231 78 78 78 78 198 198 198 198 198 239 239 249 249 249
 249 249 249 234 234 234 234 188 188 188 188 188 231 231 231 78 78 78 78 198
 198 198 198 198 198 249 249 249 249 249 249 249 234 234 234 234 188 188 188 188
 188 231 231 231 193 193 193 193 198 198 198 198 198 198 249 249 249 249 249 145
 145 234 234 234 188 188 188 188 188 188 40 40 193 193 193 193 193 198 198 198
 198 198 198 213 249 249 63 145 63 63 63 36 36 36 188 188 188 188 40 40
 40 40 40 193 193 96 96 198 198 198 198 213 213 213 63 63 63 63 63 63
 36 36 36 36 173 173 40 40 40 40 40 40 40 96 96 96 96 96 96 198
 213 213 213 63 63 63 63 63 63 36 36 36 36 173 173 40 40 40 40 40
 40 32 96 96 96 96 96 96 103 103 103 103 63 63 63 63 63 63 36 36
 36 36 173 173 173 40 40 40 40 32 32 96 96 96 96 96 96 43 103 103
 103 55 55 55 63 63 63 108 108 108 108 173 173 40 40 40 40 32 32 32
 96 96 96 96 96 43 43 43 59 59 55 55 55 55 55 178 108 108 108 108
 108 108 48 40 48 40 32 32 41 96 96 96 35 35 43 43 43 59 59 55
 55 55 55 178 178 108 108 108 108 108 48 48 48 48 166 166 166 41 41 41
 96 35 35 43 43 59 59 59 55 55 55 55 178 178 178 108 108 108 108 48
 48 48 48 166 166 166 166 41 41 101 35 35 43 43 59 59 59 55 55 55
 178 178 178 178 108 108 108 108 48 48 48 48 166 166 166 166 77 77 77 21
 21 21 21 59 59 59 44 44 44 178 178 178 178 138 138 138 138 48 48 48
 48 166 166 166 166 77 77 77 21 21 21 21 21 59 44 44 44 44 44 178
 178 178 138 138 138 138 48 48 48 166 166 166 166 166 77 77 77 21 21 21
 21 21 44 44 44 44 44 44 178 178 178 138 138 138 138 64 48 48 166 166
 166 166 166 77 77 77 195 195 195 195 21 233 233 233 233 233 233 233 83 83
 196 196 196 64 64 64 64 214 214 214 214 214 214 77 195 195 195 195 195 223
 223 233 233 233 233 233 233 83 83 196 196 196 64 64 64 64 214 214 214 214
 214 214 214 195 195 195 195 195 223 223 223 233 233 233 233 233 242 83 196 196
 196 64 64 64 64 214 214 214 214 214 214 214 195 195 195 113 113 113 223 223
 233 233 233 233 242 242 242 196 196 114 114 64 64 64 214 214 214 214 214 86
 86 86 86 195 113 113 113 223 223 79 233 233 242 242 242 242 196 114 114 114
 114 64 64 246 246 246 132 86 86 86 86 86 126 126 113 126 223 79 79 79
 242 242 242 242 242 131 114 114 114 114 171 246 88 246 88 88 86 86 86 86
 86 126 126 126 126 126 79 79 79 79 191 191 242 242 131 114 114 171 171 171
 88 88 88 88 88 88 86 86 86 86 202 202 202 202 202 79 79 79 79 191
 191 191 191 131 131 171 171 171 171 88 88 88 88 88 88 86 86 86 86 202
 202 202 202 202 79 79 79 79 191 191 191 191 131 131 171 171 171 88 88 88
 88 88 88 88 86 86 86 149 149 202 202 202 202 79 79 79 79 191 191 191
 191 102 102 102 171 102 88 88 88 88 88 88 88 78 149 149 149 149 149 202
 202 202 202 249 249 249 68 68 234 102 102 102 102 102 102 102 88 88 88 78
 78 78 78 78 149 149 149 149 149 202 202 249 249 249 249 68 234 234 234 234
 102 102 102 102 102 88 88 78 78 78 78 78 78 149 149 149 149 149 149 249
 249 249 249 249 249 234 234 234 234 234 102 102 102 102 133 231 231 78 78 78
 78 78 167 149 149 149 149 239 249 249 249 249 249 249 234 234 234 234 234 234
 188 188 188 231 231 231 231 78 78 78 78 198 198 198 198 198 198 249 249 249
 249 249 249 234 234 234 234 234 188 188 188 188 231 231 231 231 231 78 78 78
 198 198 198 198 198 198 249 249 249 249 249 249 249 234 234 234 234 188 188 188
 188 231 231 231 231 231 193 193 198 198 198 198 198 198 198 249 249 249 249 249
 249 249 234 234 234 234 188 188 188 188 231 40 40 40 193 193 193 53 53 53
 53 198 198 198 213 213 249 249 63 63 63 234 36 36 36 36 188 188 188 40
 40 40 40 40 193 96 96 96 53 53 53 198 213 213 213 63 63 63 63 63
 63 36 36 36 36 36 173 40 40 40 40 40 40 96 96 96 96 96 96 53
 213 213 213 213 63 63 63 63 63 63 36 36 36 36 36 36 40 40 40 40
 40 40 96 96 96 96 96 96 96 103 103 103 103 103 55 55 63 63 36 36
 36 36 36 36 173 40 40 40 40 40 40 96 96 96 96 96 96 96 103 103
 103 103 103 55 55 55 55 55 36 36 36 36 36 36 40 40 40 40 32 32
 96 96 96 96 96 35 35 59 59 59 59 55 55 55 55 55 55 108 108 108
 108 108 108 48 40 48 48 32 96 96 96 96 96 35 35 35 59 59 59 59
 55 55 55 55 55 55 108 108 108 108 108 48 48 48 48 48 166 166 166 96
 101 101 35 35 35 59 59 59 59 55 55 55 55 55 55 108 108 108 108 108
 48 48 48 48 48 166 166 166 77 101 101 101 35 35 59 59 59 59 55 55
 55 55 55 178 178 108 108 108 108 48 48 48 48 166 166 166 77 77 77 101
 101 21 21 59 59 59 59 44 44 44 44 44 178 138 138 138 138 138 48 48
 48 48 166 166 166 77 77 77 77 77 21 21 21 59 59 44 44 44 44 44
 44 178 138 138 138 138 138 48 48 48 48 166 166 166 166 77 77 77 77 21
 21 21 21 44 44 44 44 44 44 44 44 138 138 138 138 138 48 48 48 166
 166 166 166 166 77 77 77 195 195 195 195 195 44 44 44 44 44 44 44 83
 83 196 196 196 196 64 64 2 2 214 214 214 214 214 77 195 195 195 195 195
 195 223 233 233 233 233 233 233 83 83 196 196 196 196 64 64 64 214 214 214
 214 214 214 214 195 195 195 195 195 223 223 223 233 233 233 233 233 83 83 196
 196 196 196 196 64 64 214 214 214 214 214 214 195 195 195 195 195 113 223 223
 223 233 233 233 233 242 242 83 196 196 196 196 64 64 64 88 88 214 214 214
 86 86 195 195 195 126 113 223 223 223 223 233 233 242 242 242 242 196 114 114
 114 171 171 171 88 88 88 88 135 86 86 86 86 126 126 126 126 223 223 223
 79 242 242 242 242 242 196 114 114 171 171 171 171 88 88 88 88 88 86 86
 86 86 126 126 126 126 126 223 79 79 79 242 242 242 242 131 171 171 171 171
 171 88 88 88 88 88 88 86 86 86 86 126 126 126 126 126 79 79 79 79
 191 191 191 191 171 171 171 171 171 171 88 88 88 88 88 88 86 86 86 86
 202 202 202 202 202 79 79 79 79 191 191 191 191 171 171 171 171 171 171 88
 88 88 88 88 88 88 86 149 149 149 202 202 202 202 202 79 79 79 191 191
 191 102 102 102 102 102 102 102 88 88 88 88 88 88 78 149 149 149 149 149
 202 202 202 202 249 249 68 68 68 68 102 102 102 102 102 102 102 88 88 88
 88 78 78 78 167 167 149 149 149 149 149 149 249 249 249 68 68 68 234 234
 234 102 102 102 102 102 133 88 78 78 78 78 78 167 167 167 149 230 149 149
 249 249 249 249 249 249 234 234 234 234 234 102 102 102 133 133 231 231 78 78
 78 78 167 167 167 167 230 198 198 249 249 249 249 249 249 234 234 234 234 234
 234 102 133 133 133 231 231 231 78 78 78 167 167 167 198 198 198 198 12 12
 249 249 249 249 234 234 234 234 234 234 188 133 133 133 231 231 231 231 78 78
 167 198 198 198 198 198 198 12 12 249 249 249 249 234 234 234 234 234 234 188
 188 188 133 231 231 231 231 78 78 167 53 53 53 198 198 198 12 12 12 249
 249 249 234 234 234 234 234 234 188 188 188 133 40 40 40 40 96 96 53 53
 53 53 53 198 213 213 213 12 249 63 63 63 234 36 36 36 36 36 188 188
 40 40 40 40 40 96 96 96 96 53 53 53 53 213 213 213 213 63 63 63
 63 36 36 36 36 36 36 36 40 40 40 40 40 40 96 96 96 96 96 96
 53 213 213 213 213 213 63 63 63 63 36 36 36 36 36 36 36 36 40 40
 40 40 40 96 96 96 96 96 96 96 103 103 103 103 103 55 55 55 55 36
 36 36 36 36 36 36 40 40 40 40 40 40 96 96 96 96 96 96 35 103
 103 103 103 103 55 55 55 55 55 36 36 36 36 36 36 40 40 40 40 40
 96 96 96 96 96 96 35 35 59 59 59 59 55 55 55 55 55 55 108 108