# vtk DataFile Version 2.0
Data set from ImportExport Version 6.5.171.b0b162591
ASCII

DATASET RECTILINEAR_GRID
DIMENSIONS 30 30 30
X_COORDINATES 30 float
-1.250000 1.250000 3.750000 6.250000 8.750000 11.250000 13.750000 16.250000 18.750000 21.250000 23.750000 26.250000 28.750000 31.250000 33.750000 36.250000 38.750000 41.250000 43.750000 46.250000 48.750000 
51.250000 53.750000 56.250000 58.750000 61.250000 63.750000 66.250000 68.750000 71.250000 
Y_COORDINATES 30 float
-1.250000 1.250000 3.750000 6.250000 8.750000 11.250000 13.750000 16.250000 18.750000 21.250000 23.750000 26.250000 28.750000 31.250000 33.750000 36.250000 38.750000 41.250000 43.750000 46.250000 48.750000 
51.250000 53.750000 56.250000 58.750000 61.250000 63.750000 66.250000 68.750000 71.250000 
Z_COORDINATES 30 float
-1.250000 1.250000 3.750000 6.250000 8.750000 11.250000 13.750000 16.250000 18.750000 21.250000 23.750000 26.250000 28.750000 31.250000 33.750000 36.250000 38.750000 41.250000 43.750000 46.250000 48.750000 
51.250000 53.750000 56.250000 58.750000 61.250000 63.750000 66.250000 68.750000 71.250000 
CELL_DATA 24389
SCALARS FeatureIds int 1
LOOKUP_TABLE default
 17 17 17 17 17 58 58 58 58 58 58 58 39 39 39 39 39 119 119 119
 119 119 3 3 3 3 3 64 64 17 17 17 17 17 40 58 58 58 58 58
 58 39 39 39 39 39 119 119 119 119 3 3 3 3 3 3 3 64 17 17
 17 17 40 40 40 40 58 58 151 151 39 39 39 39 39 92 92 92 92 3
 3 3 3 3 3 3 3 17 17 17 40 40 40 40 40 40 151 151 151 151
 39 39 39 92 92 92 92 92 3 3 3 3 3 3 3 3 17 17 40 40
 40 40 40 40 40 151 151 151 151 151 39 39 92 92 92 92 92 3 3 3
 3 3 3 3 3 49 49 49 40 40 40 40 40 40 151 151 151 151 151 106
 248 248 248 248 214 214 214 3 3 3 3 3 3 3 49 49 49 40 40 40
 40 40 40 91 91 91 91 106 106 248 248 248 248 214 214 214 249 249 249 249
 249 249 249 49 49 49 49 40 40 40 40 91 91 91 91 91 91 248 248 248
 248 248 30 214 214 249 249 249 249 249 249 249 49 49 49 49 40 40 40 40
 91 91 91 91 91 91 91 248 248 248 30 30 30 214 249 249 249 249 249 249
 19 19 49 49 49 102 102 102 91 91 91 91 91 91 91 91 248 248 30 30
 30 30 237 237 249 249 249 249 19 19 19 19 19 102 102 102 102 102 91 91
 183 91 91 91 91 248 248 30 30 30 30 237 237 237 19 19 19 19 19 19
 19 19 102 102 102 102 102 183 183 183 183 183 42 42 42 248 30 30 30 30
 237 237 237 19 19 19 19 19 19 19 19 102 102 102 102 102 102 183 183 183
 183 42 42 42 5 5 5 5 5 5 237 19 19 19 19 19 19 19 19 19
 102 102 102 102 102 102 183 183 183 183 78 78 78 5 5 5 5 5 5 19
 19 19 19 19 19 19 19 19 19 102 102 102 102 102 102 183 78 78 78 78
 78 78 5 5 5 5 5 5 247 19 19 19 19 19 19 19 19 19 102 102
 102 102 146 146 146 163 163 78 78 78 78 5 5 5 5 5 247 247 247 247
 19 19 19 19 19 19 19 102 102 146 146 146 146 146 163 163 163 78 78 78
 187 187 187 187 187 247 247 247 247 247 19 19 19 241 241 241 143 143 143 146
 146 146 146 163 163 163 163 78 96 187 187 187 187 199 199 247 247 247 247 241
 241 241 241 241 241 143 143 143 143 146 146 146 163 163 163 163 96 96 96 15
 15 15 199 199 199 247 247 247 241 241 241 241 241 241 143 143 143 143 6 6
 6 148 148 148 96 96 96 96 15 15 15 199 199 199 199 236 236 241 241 241
 241 241 241 143 143 143 6 6 6 6 148 148 148 96 96 96 96 15 15 15
 15 199 199 199 236 236 236 241 241 241 241 241 143 143 6 6 6 6 6 148
 148 148 62 96 96 96 15 15 15 15 15 15 199 236 236 236 241 241 241 241
 241 143 143 6 6 6 6 167 167 148 62 62 96 96 96 15 15 15 15 15
 15 15 236 236 236 241 241 80 80 123 123 123 123 6 6 6 167 167 167 62
 62 96 96 96 15 15 15 15 15 31 31 31 31 236 41 41 80 80 123 123
 123 123 123 123 225 167 167 167 62 62 96 96 96 15 15 15 142 142 31 31
 31 31 31 41 80 80 80 80 123 123 123 123 123 58 58 58 58 58 58 96
 96 96 15 142 142 142 142 142 31 31 31 31 100 80 80 80 123 123 123 123
 123 58 58 58 58 58 58 58 58 96 96 15 142 142 142 142 142 31 31 31
 31 100 100 80 80 123 123 123 123 58 58 58 58 58 58 58 58 58 58 142
 142 142 142 142 142 142 31 31 31 100 100 100 80 80 123 123 123 123 58 58
 58 58 58 58 58 58 58 58 119 119 119 142 142 142 142 31 31 31 100 100
 100 17 17 17 17 40 58 58 58 58 58 58 58 39 39 39 39 119 119 119
 119 119 119 119 3 3 3 3 64 64 17 17 17 17 40 40 40 58 58 58
 58 58 39 39 39 39 119 119 119 119 119 119 3 3 3 3 3 3 64 196
 17 17 40 40 40 40 40 58 58 58 151 39 39 39 185 92 92 92 92 92
 3 3 3 3 3 3 3 64 196 17 40 40 40 40 40 40 40 151 151 151
 151 39 39 185 92 92 92 92 92 3 3 3 3 3 3 3 196 196 40 40
 40 40 40 40 40 40 151 151 151 151 151 106 92 92 92 92 92 92 3 3
 3 3 3 3 3 196 49 49 40 40 40 40 40 40 40 209 209 209 209 106
 106 106 92 92 92 92 92 3 3 3 3 3 3 3 3 49 49 40 40 40
 40 40 40 40 209 209 209 209 106 106 106 248 248 248 92 92 214 249 249 249
 249 249 249 249 49 49 45 45 40 40 40 40 40 209 209 209 209 106 106 106
 248 30 30 30 30 214 249 249 249 249 249 249 19 49 49 45 45 40 40 40
 40 40 209 209 209 209 106 106 106 248 30 30 30 30 30 249 249 249 249 249
 19 19 19 49 45 45 102 102 102 40 91 91 94 94 94 106 106 106 248 30
 30 30 30 30 237 249 249 249 19 19 19 19 19 19 102 102 102 102 102 94
 94 94 94 94 94 106 106 30 30 30 30 30 30 237 237 19 19 19 19 19
 19 19 19 102 102 102 102 102 183 183 183 183 183 42 42 57 57 57 57 5
 5 5 237 19 19 19 19 19 19 19 19 19 102 102 102 102 102 102 183 183
 183 183 42 78 5 5 5 5 5 5 5 5 19 19 19 19 19 19 19 19
 19 102 102 102 102 102 102 183 183 78 78 78 78 78 5 5 5 5 5 5
 5 19 19 19 19 19 19 19 19 19 102 102 102 102 102 102 102 78 78 78
 78 78 78 5 5 5 5 5 5 5 19 19 19 19 19 19 19 19 19 102
 102 102 102 146 146 146 163 163 78 78 78 78 5 5 5 5 5 5 247 247
 19 19 19 19 19 19 19 19 143 102 146 146 146 146 146 163 163 163 78 78
 78 5 5 5 5 5 247 247 247 247 19 19 19 19 241 241 143 143 143 143
 146 146 146 146 163 163 163 163 78 20 20 169 169 169 199 199 199 247 247 247
 19 241 241 241 241 117 143 143 143 143 146 146 163 163 163 163 163 20 20 20
 169 169 169 199 199 199 199 247 247 241 241 241 241 117 117 143 143 143 143 146
 6 6 163 148 148 148 20 20 20 15 15 15 199 199 199 199 199 236 241 241
 241 241 241 117 143 143 143 6 6 6 6 148 148 148 148 96 20 15 15 15
 15 15 199 199 199 236 236 241 241 241 241 241 143 143 143 6 6 6 6 6
 148 148 148 148 96 96 15 15 15 15 15 15 15 199 236 236 41 241 241 241
 80 143 143 143 6 6 6 6 6 148 148 148 148 96 96 15 15 15 15 15
 15 15 15 236 41 41 41 41 80 80 80 123 123 123 6 6 6 167 167 148
 148 148 96 96 15 15 15 15 15 15 15 31 31 41 41 41 41 80 80 80
 123 123 123 123 123 58 58 58 58 148 148 96 96 15 15 15 15 15 142 31
 31 31 41 41 41 80 80 80 80 123 123 123 123 123 58 58 58 58 58 58
 104 104 15 15 142 142 142 142 142 31 31 31 41 41 80 80 80 80 123 123
 123 123 58 58 58 58 58 58 58 58 104 234 234 234 234 142 142 142 31 31
 31 31 100 80 80 80 80 123 123 123 58 58 58 58 58 58 58 58 58 104
 234 234 234 234 234 142 142 31 31 31 100 100 100 80 80 80 123 123 123 58
 58 58 58 58 58 58 58 58 185 119 119 119 119 119 119 142 31 31 31 100
 100 100 196 196 196 196 40 58 58 58 58 58 58 58 58 185 185 185 185 119
 119 119 119 119 119 3 3 3 64 64 64 196 196 196 40 40 40 40 58 58
 58 58 58 58 185 185 185 185 119 119 119 119 119 3 3 3 3 64 64 64
 196 196 196 40 40 40 40 40 58 58 58 58 185 185 185 185 185 92 92 92
 92 206 3 3 3 3 3 64 64 196 196 40 40 40 40 40 40 40 40 151
 209 151 185 185 185 185 92 92 92 92 3 3 3 3 3 3 64 196 196 40
 40 40 40 40 40 40 40 40 209 209 209 106 106 106 92 92 92 92 92 92
 3 3 3 3 3 3 196 40 40 40 40 40 40 40 40 40 209 209 209 209
 106 106 106 106 92 92 92 92 92 3 3 3 3 3 3 196 45 45 45 45
 40 40 40 40 40 209 209 209 209 106 106 106 106 92 92 92 92 92 27 27
 3 3 3 3 196 45 45 45 45 45 40 40 40 40 209 209 209 209 106 106
 106 16 30 30 30 30 30 27 27 27 27 27 19 19 45 45 45 45 45 40
 40 40 209 209 209 209 209 106 106 16 16 30 30 30 30 30 27 27 27 27
 19 19 19 19 45 45 45 45 40 40 40 48 48 94 94 94 106 106 16 16
 30 30 30 30 30 27 27 27 19 19 19 19 19 19 19 102 102 102 102 102
 94 94 94 94 94 94 106 16 57 57 30 30 30 30 27 27 19 19 19 19
 19 19 19 19 102 102 102 102 102 94 94 94 94 94 94 106 57 57 57 57
 57 5 5 5 19 19 19 19 19 19 19 19 19 102 102 102 102 102 102 94
 94 94 94 78 78 5 5 57 57 5 5 5 5 19 19 19 19 19 19 19
 19 19 102 102 102 102 102 102 190 190 78 78 78 78 5 5 5 5 5 5
 5 5 19 19 19 19 19 19 19 19 19 102 102 102 102 102 102 190 190 78
 78 78 78 78 5 5 5 5 5 5 5 19 19 19 19 19 19 19 19 19
 102 102 102 102 146 146 163 163 163 78 78 78 78 5 5 5 5 5 5 5
 19 19 19 19 19 19 19 19 19 102 102 146 146 146 146 163 163 163 163 78
 78 78 78 5 5 5 5 5 199 19 19 19 19 19 19 117 117 117 143 143
 143 146 146 146 163 163 163 163 163 78 20 20 169 169 169 169 199 199 199 19
 19 19 241 241 117 117 117 143 143 143 146 146 146 163 163 163 163 163 20 20
 20 169 169 169 169 199 199 199 199 247 241 241 117 117 117 117 143 143 143 143
 146 6 163 163 163 163 20 20 20 20 169 169 169 169 199 199 199 199 236 241
 241 117 117 117 117 143 143 143 6 6 6 6 148 148 148 20 20 20 20 15
 15 15 15 199 199 199 199 41 41 241 117 117 117 117 143 143 6 6 6 6
 6 148 148 148 148 20 20 15 15 15 15 15 15 15 199 199 41 41 41 41
 80 117 117 143 143 6 6 6 6 6 148 148 148 148 96 96 15 15 15 15
 15 15 15 15 41 41 41 41 41 80 80 80 80 123 123 6 6 6 6 148
 148 148 148 96 15 15 15 15 15 15 15 15 15 41 41 41 41 41 80 80
 80 80 123 123 123 123 58 58 58 58 148 104 104 104 15 15 15 15 15 15
 15 31 41 41 41 41 41 80 80 80 80 123 123 123 58 58 58 58 58 58
 104 104 104 104 234 234 234 234 142 142 31 110 110 110 41 80 80 80 80 80
 123 123 123 58 58 58 58 58 58 58 104 104 234 234 234 234 234 234 142 31
 110 110 110 41 80 80 80 80 80 123 123 58 58 58 58 58 58 58 58 104
 104 234 234 234 234 234 234 234 31 110 110 110 110 80 80 80 80 80 123 123
 58 58 58 58 58 58 58 58 185 185 185 234 234 234 234 119 119 119 110 110
 110 100 80 196 196 196 196 196 55 55 55 55 55 55 55 55 185 185 185 185
 119 206 119 119 119 119 119 3 64 64 64 64 196 196 196 196 40 40 40 55
 55 55 55 55 185 185 185 185 185 119 119 119 119 119 119 3 3 64 64 64
 64 196 196 196 40 40 40 40 40 55 55 55 55 185 185 185 185 185 119 92
 92 92 119 3 3 3 3 64 64 64 196 196 196 40 40 40 40 40 40 40
 209 209 185 185 185 185 185 92 92 92 92 92 3 3 3 3 64 64 196 196
 196 40 40 40 40 40 40 40 40 209 209 106 106 106 185 185 92 92 92 92
 92 3 3 3 3 3 64 196 196 40 40 40 40 40 40 40 40 209 209 209
 106 106 106 106 106 92 92 92 92 92 3 3 3 3 3 64 196 45 45 45
 45 40 40 40 40 40 209 209 209 106 106 106 106 106 92 92 92 92 92 27
 27 27 27 27 27 196 45 45 45 45 45 40 40 40 40 209 209 209 209 106
 106 16 16 16 30 30 30 27 27 27 27 27 27 98 98 45 45 45 45 45
 40 40 40 40 209 209 209 209 106 106 16 16 16 30 30 30 27 27 27 27
 27 98 98 98 19 45 45 45 45 40 40 40 94 94 94 48 94 106 16 16
 16 16 30 30 30 27 27 27 27 98 98 98 98 19 19 45 45 45 44 44
 44 94 94 94 94 94 48 16 16 16 57 57 57 57 30 27 27 98 98 98
 98 98 19 19 19 44 44 44 44 44 94 94 94 94 94 48 16 16 57 57
 57 57 5 5 5 246 19 98 98 98 98 19 19 19 44 44 44 44 44 238
 94 107 107 107 107 78 5 5 57 57 57 5 5 5 5 19 19 19 19 19
 19 19 19 44 44 44 44 44 44 107 107 107 107 78 78 78 5 5 5 5
 5 5 5 19 19 19 19 19 19 19 19 19 44 44 44 44 44 190 190 190
 190 78 78 78 78 5 5 5 5 5 5 5 5 19 19 19 19 19 19 19
 19 44 44 44 44 146 146 190 190 190 78 78 78 78 5 5 5 5 5 5
 5 207 207 207 19 19 19 19 19 117 130 44 146 146 146 146 163 163 163 163
 78 78 78 78 5 5 5 5 5 5 207 207 207 207 19 19 117 117 117 130
 143 143 146 146 146 163 163 163 163 163 78 20 20 169 169 169 169 169 169 207
 207 207 207 19 19 117 117 117 130 143 143 146 146 146 163 163 163 163 163 20
 20 20 169 169 169 169 169 169 199 199 207 207 117 117 117 117 117 130 143 143
 143 146 146 163 163 163 163 20 20 20 20 169 169 169 169 169 199 199 199 231
 241 117 117 117 117 117 130 143 143 6 6 6 6 163 163 163 20 20 20 20
 169 169 169 169 169 199 199 199 200 41 117 117 117 117 117 130 143 6 6 6
 6 6 148 148 148 148 20 20 20 15 15 169 15 15 15 200 200 200 41 41
 41 41 117 117 130 143 6 6 6 6 6 148 148 148 148 20 153 153 153 15
 15 15 15 15 200 200 200 41 41 41 80 80 80 80 80 123 6 6 6 6
 55 148 148 104 104 153 153 153 153 15 15 15 15 200 200 200 41 41 41 80
 80 80 80 123 123 123 123 55 55 55 55 55 104 104 104 153 153 153 153 15
 15 110 110 110 110 41 41 41 80 80 80 80 123 123 123 55 55 55 55 55
 55 104 104 104 104 153 234 234 234 234 234 110 110 110 110 41 80 80 80 80
 80 123 123 123 55 55 55 55 55 55 104 104 104 104 234 234 234 234 234 234
 110 110 110 110 110 80 80 80 80 80 123 123 55 55 55 55 55 55 55 55
 104 104 104 234 234 234 234 234 234 110 110 110 110 110 80 196 196 196 80 123
 55 55 55 55 55 55 55 55 185 185 185 185 234 234 234 234 234 234 110 110
 110 110 64 80 196 196 196 196 196 196 55 55 55 55 55 55 185 185 185 185
 185 185 206 206 119 119 119 119 64 64 64 64 64 196 196 196 196 196 40 40
 55 55 55 55 55 185 185 185 185 185 185 119 119 119 119 119 3 64 64 64
 64 64 196 196 196 196 40 40 40 40 55 55 55 55 185 185 185 185 185 185
 119 92 119 119 3 3 3 64 64 64 64 196 196 196 40 40 40 40 40 40
 40 209 209 185 185 185 185 185 92 92 92 92 92 3 3 3 64 64 64 196
 196 196 40 40 40 40 40 40 40 209 209 209 106 106 185 185 185 92 92 92
 92 92 3 3 3 3 64 64 196 196 196 40 40 40 40 40 40 40 209 209
 209 106 106 106 106 185 92 92 92 92 92 92 3 27 27 64 64 196 45 45
 45 45 40 40 40 40 40 209 209 209 106 106 106 106 106 16 92 92 92 92
 27 27 27 27 27 64 196 45 45 45 45 45 40 40 40 40 209 209 209 209
 106 106 16 16 16 16 92 92 27 27 27 27 27 27 98 98 98 45 45 45
 45 40 40 40 209 209 209 209 209 106 16 16 16 16 30 30 30 27 27 27
 27 27 98 98 98 98 98 45 45 45 73 40 40 94 94 94 94 94 106 16
 16 16 16 30 30 246 27 27 27 27 98 98 98 98 98 98 73 73 73 73
 73 238 238 238 94 94 94 94 16 16 16 57 57 57 246 246 246 246 27 98
 98 98 98 98 98 73 73 73 44 44 238 238 238 238 94 107 107 16 16 57
 57 57 57 5 246 246 246 246 98 98 98 98 98 19 73 73 44 44 44 238
 238 238 107 107 107 107 107 5 5 5 57 5 5 5 246 246 19 98 98 98
 98 19 19 19 44 44 44 44 44 238 107 107 107 107 107 78 5 5 5 5
 5 5 5 5 5 207 19 19 19 19 19 19 19 44 44 44 44 44 190 190
 190 190 190 78 78 78 5 5 5 5 5 5 5 207 207 207 207 19 19 19
 19 19 44 44 44 44 190 190 190 190 190 190 78 78 78 5 5 5 5 5
 5 5 207 207 207 207 19 19 19 117 130 130 130 146 146 146 190 190 190 163
 163 78 78 78 78 218 218 218 218 218 218 207 207 207 207 207 19 117 117 130
 130 130 130 146 146 146 163 163 163 163 163 78 20 20 218 218 218 218 218 218
 207 207 207 207 207 60 117 117 130 130 130 130 146 146 146 163 163 163 163 163
 20 20 20 169 169 169 169 169 169 207 207 207 207 60 117 117 117 130 130 130
 130 143 146 146 163 163 163 163 20 20 20 20 169 169 169 169 169 169 169 231
 231 231 117 117 117 117 130 130 130 130 6 6 6 6 163 163 163 20 20 20
 20 169 169 169 169 169 169 169 200 200 200 41 117 117 117 130 130 130 130 6
 6 6 6 148 148 148 20 20 20 153 153 169 169 169 169 169 200 200 200 200
 41 41 41 117 130 130 130 130 6 6 6 6 148 148 148 20 20 153 153 153
 153 153 15 15 200 200 200 200 200 41 41 80 80 80 80 80 123 101 6 6
 55 55 148 104 104 104 153 153 153 153 153 153 15 200 200 200 200 200 41 41
 80 80 80 80 123 123 123 55 55 55 55 55 104 104 104 104 153 153 153 153
 153 153 110 110 110 110 110 41 41 80 80 80 80 123 86 86 55 55 55 55
 55 55 104 104 104 104 153 153 234 234 234 110 110 110 110 110 110 80 80 80
 80 80 86 86 86 55 55 55 55 55 55 104 104 104 104 104 234 234 234 234
 110 110 110 110 110 110 80 80 80 80 80 80 86 86 55 55 55 55 55 55
 104 104 104 104 234 234 234 234 234 234 110 110 110 110 110 80 196 196 196 196
 196 86 55 55 55 55 55 55 55 185 185 185 185 185 234 234 234 119 119 110
 110 110 64 64 196 196 196 196 196 196 196 55 55 55 55 55 55 185 185 185
 185 185 185 119 119 119 119 119 119 64 64 64 64 64 196 196 196 196 196 40
 40 55 55 55 55 185 185 185 185 162 185 185 119 119 119 119 119 119 64 64
 64 64 64 196 196 196 196 40 40 40 40 55 55 55 185 185 185 185 185 185
 185 119 119 119 119 119 3 64 64 64 64 64 196 196 196 196 40 40 40 40
 40 240 209 185 185 185 185 185 185 185 92 92 92 92 92 21 64 64 64 64
 64 196 196 196 40 40 40 40 40 40 240 209 209 106 185 185 185 185 185 92
 92 92 92 92 21 21 64 64 64 64 196 196 40 40 40 40 40 40 40 209
 209 209 106 106 106 185 185 92 92 92 92 92 27 27 21 21 64 64 64 196
 45 45 40 40 40 40 40 40 209 209 209 106 106 106 106 16 16 92 92 92
 27 27 27 27 27 191 191 191 98 45 45 40 40 40 40 40 209 209 209 209
 209 106 106 16 16 16 16 92 27 27 27 27 27 27 27 98 98 98 45 45
 73 73 40 40 240 209 209 209 209 209 106 16 16 16 16 16 30 27 27 27
 27 27 27 98 98 98 98 98 73 73 73 73 73 238 238 238 94 94 94 106
 16 16 16 16 16 246 246 246 246 27 27 98 98 98 98 98 73 73 73 73
 73 73 238 238 238 238 94 94 94 16 16 16 57 57 57 246 246 246 246 246
 98 98 98 98 98 73 73 73 73 73 242 238 238 238 238 107 107 107 16 16
 5 5 5 5 246 246 246 246 246 98 98 98 98 98 73 73 73 73 73 242
 238 238 238 107 107 107 107 107 5 5 5 5 5 5 246 246 246 246 98 98
 98 98 98 98 73 73 73 44 44 44 238 107 107 107 107 107 107 5 5 5
 5 5 5 5 5 207 207 207 98 98 98 19 19 73 73 44 44 44 190 190
 190 190 190 190 190 78 78 5 5 5 5 5 5 5 207 207 207 207 207 19
 19 19 130 73 44 44 44 190 190 190 190 190 190 190 78 78 78 5 218 218
 218 5 5 207 207 207 207 207 19 19 222 130 130 130 130 146 190 190 190 190
 190 190 190 78 78 78 218 218 218 218 218 218 207 207 207 207 207 60 222 222
 130 130 130 130 130 190 190 190 190 163 163 163 78 20 20 218 218 218 218 218
 218 207 207 207 207 60 60 222 222 130 130 130 130 130 146 146 163 163 163 163
 163 20 20 20 218 218 218 218 218 218 231 231 231 231 60 60 222 222 130 130
 130 130 130 146 163 163 163 163 163 163 20 20 20 169 169 169 169 169 169 231
 231 231 231 231 222 222 222 130 130 130 130 130 101 204 204 163 163 163 20 20
 20 20 169 169 169 169 169 169 231 231 231 231 231 222 222 222 130 130 130 130
 101 101 101 204 204 204 148 20 20 153 153 153 153 169 169 169 169 200 200 200
 200 41 41 41 222 130 130 130 101 101 101 101 101 204 148 148 153 153 153 153
 153 153 153 153 153 200 200 200 200 200 41 41 80 80 80 80 9 101 101 101
 101 101 101 148 104 104 104 153 153 153 153 153 153 153 200 200 200 200 200 41
 41 80 80 80 80 9 101 101 101 101 55 55 55 104 104 104 104 153 153 153
 153 153 153 110 110 110 110 110 110 41 80 80 80 80 86 86 86 86 55 55
 55 55 104 104 104 104 104 153 153 153 153 153 110 110 110 110 110 110 80 80
 80 80 80 86 86 86 86 55 55 55 55 55 104 104 104 104 104 234 234 234
 234 110 110 110 110 110 110 80 196 196 196 80 86 86 86 86 55 55 55 55
 55 104 104 104 104 104 234 234 234 234 110 110 110 110 110 110 110 196 196 196
 196 196 86 86 86 55 55 55 55 55 185 185 185 185 185 234 206 234 119 119
 110 110 110 64 64 64 196 196 196 196 196 196 55 55 55 55 55 185 185 185
 185 185 185 185 119 119 119 119 119 64 64 64 64 64 64 196 196 196 196 196
 196 196 240 55 55 55 185 185 185 185 185 185 185 119 119 119 119 119 64 64
 64 64 64 64 196 196 196 196 196 59 59 240 240 233 233 185 185 185 185 185
 185 185 119 119 119 119 119 21 64 64 64 64 64 196 196 196 196 59 59 59
 240 240 240 240 240 185 185 185 185 185 185 92 92 92 92 21 21 21 64 64
 64 64 196 196 196 40 59 59 59 240 240 240 240 240 240 185 185 185 185 185
 92 92 92 92 21 21 21 21 64 64 64 196 196 40 40 59 59 59 240 240
 240 240 240 240 106 106 185 185 92 92 92 92 21 21 21 21 21 191 191 191
 191 196 40 40 59 59 59 240 240 240 240 240 240 106 106 211 211 33 33 92
 92 21 21 21 21 21 191 191 191 98 45 45 40 59 59 240 240 240 240 240
 209 209 106 211 211 211 33 33 33 27 27 27 27 21 21 77 77 77 98 73
 73 73 73 73 240 240 240 240 240 209 209 106 16 211 16 16 33 246 246 27
 27 27 27 27 98 98 98 98 73 73 73 73 73 73 242 238 238 238 94 94
 106 16 23 16 16 33 246 246 246 246 246 246 98 98 98 98 98 73 73 73
 73 73 242 242 238 238 238 94 94 23 23 23 23 23 23 246 246 246 246 246
 246 98 98 98 98 98 73 73 73 73 242 242 242 238 238 238 107 107 107 23
 23 23 23 5 5 246 246 246 246 246 98 98 98 98 98 73 73 73 73 242
 242 242 238 238 107 107 107 107 107 23 23 5 5 5 246 246 246 246 246 98
 98 98 98 98 73 73 73 73 242 242 242 238 107 107 107 107 107 107 23 23
 5 5 5 5 246 246 246 207 207 98 98 98 19 73 73 73 73 242 242 190
 190 190 190 190 190 190 190 190 5 5 5 5 5 5 246 207 207 207 207 207
 19 19 19 73 73 73 242 242 190 190 190 190 190 190 190 190 78 78 218 218
 218 218 218 207 207 207 207 207 207 207 60 222 130 130 130 130 130 190 190 190
 190 190 190 190 190 78 218 218 218 218 218 218 218 207 207 207 207 60 60 60
 222 130 130 130 130 130 190 190 190 190 190 190 190 190 20 218 218 218 218 218
 218 218 231 231 231 60 60 60 222 222 130 130 130 130 130 130 190 190 163 163
 163 163 20 20 20 218 218 218 218 218 218 231 231 231 231 60 60 222 222 130
 130 130 130 130 204 204 204 163 163 163 171 20 20 20 218 218 218 218 218 231
 231 231 231 231 231 60 222 222 130 130 130 130 130 101 204 204 204 204 171 171
 20 20 20 169 169 169 169 169 231 231 231 231 231 231 231 52 222 130 130 130
 130 101 101 101 204 204 204 204 171 20 153 153 153 153 169 169 169 203 203 203
 203 203 203 52 52 52 52 9 9 9 101 101 101 101 204 204 204 153 153 153
 153 153 153 153 153 153 203 203 203 203 203 203 41 52 52 52 9 9 9 101
 101 101 101 101 204 104 104 104 153 153 153 153 153 153 153 203 203 203 203 203
 203 41 52 52 52 9 9 9 101 101 101 101 101 101 104 104 104 104 153 153
 153 153 153 153 203 203 110 110 110 203 41 80 80 80 80 86 86 86 86 86
 55 55 55 104 104 104 104 104 153 153 153 153 110 110 110 110 110 110 110 80
 80 80 80 80 86 86 86 86 86 55 55 55 104 104 104 104 104 104 234 234
 234 110 110 110 110 110 110 110 110 196 196 196 196 86 86 86 86 86 55 55
 55 55 104 104 104 104 104 234 234 234 234 110 110 110 110 110 110 64 196 196
 196 196 86 86 86 86 86 55 55 55 185 185 185 185 185 185 185 206 234 88
 88 110 110 110 64 64 64 196 196 196 196 196 196 240 240 240 233 233 185 185
 185 185 185 185 185 185 119 147 147 147 88 1 64 64 64 64 196 196 196 196
 196 196 240 240 240 233 233 233 185 185 185 185 185 185 185 119 119 147 147 88
 64 64 64 64 64 196 196 196 196 196 59 240 240 240 233 233 233 185 185 185
 185 185 185 185 119 119 147 21 21 64 64 64 64 64 196 196 196 196 59 59
 240 240 240 233 233 240 240 185 185 185 185 185 92 92 92 21 21 21 21 21
 64 64 64 191 196 196 59 59 59 59 240 240 240 240 240 240 240 185 185 185
 185 92 92 92 21 21 21 21 21 191 191 191 191 196 59 59 59 59 59 240
 240 240 240 240 240 240 211 211 211 33 33 33 21 21 21 21 21 21 191 191
 191 191 191 59 59 59 59 59 240 240 240 240 240 240 211 211 211 211 33 33
 33 21 21 21 21 21 21 191 191 191 191 191 59 59 59 59 240 240 240 240
 240 240 240 211 211 211 211 33 33 33 192 192 21 21 21 21 77 77 77 98
 73 73 73 73 73 240 240 240 240 240 240 240 211 211 211 211 33 33 192 192
 192 192 21 21 21 77 77 98 98 73 73 73 73 73 242 242 240 240 240 240
 240 23 23 23 23 23 33 192 192 192 192 246 21 98 98 98 98 98 73 73
 73 73 242 242 242 238 238 238 240 23 23 23 23 23 23 23 192 246 246 246
 246 246 98 98 98 98 98 73 73 73 73 242 242 242 238 238 238 107 107 23
 23 23 23 23 23 246 246 246 246 246 246 98 98 98 98 98 73 73 73 242
 242 242 242 238 238 107 107 107 23 23 23 23 23 5 5 246 246 246 246 246
 98 98 98 98 98 73 73 73 73 242 242 242 238 107 107 107 107 23 23 23
 23 23 24 24 24 246 246 246 207 207 98 98 98 98 73 73 73 73 242 242
 242 190 190 190 190 190 190 190 23 23 24 24 24 24 71 71 207 207 207 207
 207 19 60 73 73 73 73 242 242 190 190 190 190 190 190 190 190 23 24 24
 24 24 24 71 71 71 207 207 207 60 60 60 60 130 130 130 130 130 190 190
 190 190 190 190 190 190 78 24 24 24 24 24 71 61 61 207 207 60 60 60
 60 60 130 130 130 130 130 190 190 190 190 190 190 190 190 171 218 218 218 218
 218 218 61 61 231 231 60 60 60 60 222 130 130 130 130 130 204 204 204 190
 163 171 171 171 171 20 218 218 218 218 218 61 61 231 231 231 60 60 222 222
 130 130 130 130 130 204 204 204 204 204 171 171 171 171 171 218 218 218 218 218
 61 231 231 231 231 231 60 52 222 130 130 130 130 204 204 204 204 204 204 171
 171 171 171 153 153 153 169 169 169 231 231 231 231 231 231 60 52 52 52 130
 9 9 101 101 204 204 204 204 204 171 171 153 153 153 153 153 153 169 203 203
 203 231 203 203 52 52 52 52 9 9 9 101 101 101 204 204 204 204 25 153
 153 153 153 153 153 153 203 203 203 203 203 203 203 52 52 52 52 9 9 9
 101 101 101 101 204 204 25 25 104 153 153 153 153 153 153 203 203 203 203 203
 203 203 52 52 52 52 9 9 9 101 101 101 101 204 25 25 104 104 104 153
 153 153 153 153 203 203 203 203 203 203 203 52 52 52 52 9 9 86 86 86
 101 101 55 25 104 104 104 104 104 153 153 153 153 88 110 110 110 110 110 110
 52 52 52 52 9 86 86 86 86 86 55 55 210 210 104 104 104 104 104 153
 153 88 88 88 1 1 1 1 110 110 196 196 196 86 86 86 86 86 86 55
 55 210 210 185 104 104 104 104 234 234 88 88 88 1 1 1 1 1 64 196
 196 196 196 86 86 86 86 86 55 210 210 185 185 185 185 185 185 185 206 88
 88 88 1 1 1 1 64 64 196 196 196 196 196 196 240 240 240 233 233 210
 108 108 108 108 108 108 108 147 147 147 147 88 1 1 64 64 64 196 196 196
 196 196 240 240 240 240 233 233 233 108 108 38 38 108 108 108 147 147 147 147
 88 1 64 64 64 64 196 196 196 196 196 240 240 240 233 233 233 233 240 108
 108 108 108 108 108 147 147 147 147 21 21 64 64 64 64 191 196 196 196 59
 240 240 240 233 233 233 240 240 108 108 108 108 108 108 147 21 21 21 21 21
 21 191 191 191 191 191 196 59 59 59 240 240 240 240 240 240 240 240 108 108
 108 33 33 33 21 21 21 21 21 21 191 191 191 191 191 59 59 59 59 59
 240 240 240 240 240 240 240 211 211 211 33 33 33 21 21 21 21 21 21 191
 191 191 191 191 191 59 59 59 240 240 240 240 240 240 240 211 211 211 211 33
 33 33 33 21 21 21 21 21 191 191 191 191 191 73 59 59 240 240 240 240
 240 240 240 240 211 211 211 211 33 33 33 192 192 21 21 21 21 77 77 77
 77 73 73 73 73 240 240 240 240 240 240 240 240 211 211 211 211 33 33 192
 192 192 192 21 21 21 77 77 77 98 73 73 73 73 242 242 240 240 240 240
 240 240 23 23 23 23 33 33 192 192 192 192 192 21 21 77 77 77 98 73
 73 73 73 242 242 242 240 240 240 240 23 23 23 23 23 23 23 192 192 192
 192 192 192 98 98 98 98 98 73 73 73 242 242 242 242 242 238 10 107 23
 23 23 23 23 23 23 192 192 192 192 192 192 98 98 98 98 98 73 73 73
 242 242 242 242 242 10 10 107 107 23 23 23 23 23 23 24 246 246 246 246
 246 98 98 98 98 98 73 73 73 242 242 242 242 242 10 10 178 178 23 23
 23 23 23 24 24 24 71 71 89 89 207 98 98 98 98 73 73 73 242 242
 242 242 10 10 178 178 178 178 23 23 23 24 24 24 24 71 71 89 89 207
 207 60 60 60 213 73 73 13 13 13 178 178 178 178 178 178 178 178 23 24
 24 24 24 24 71 71 89 89 89 60 60 60 60 213 213 130 130 13 13 178
 178 178 178 178 178 178 178 23 24 24 24 24 24 71 71 61 61 207 60 60
 60 60 213 213 130 130 130 130 204 178 178 178 178 178 178 171 171 24 24 24
 24 24 61 61 61 61 228 60 60 60 60 213 130 130 130 130 130 204 204 204
 178 171 171 171 171 171 171 218 218 218 218 61 61 61 228 228 228 60 60 52
 222 130 130 130 130 204 204 204 204 204 171 171 171 171 171 171 139 139 139 139
 61 61 228 228 231 228 228 60 52 52 52 9 9 9 9 204 204 204 204 204
 171 171 171 171 171 139 139 139 139 61 61 231 231 231 231 228 228 52 52 52
 9 9 9 9 204 204 204 204 204 204 171 171 171 153 153 153 139 139 226 226
 231 231 231 203 203 52 52 52 52 9 9 9 9 101 204 204 204 204 25 25
 25 153 153 153 153 153 153 226 203 203 203 203 203 203 52 52 52 52 9 9
 9 9 101 101 204 204 25 25 25 25 153 153 153 153 153 153 203 203 203 203
 203 203 203 52 52 52 52 9 9 9 9 101 101 101 204 25 25 25 25 104
 153 153 153 153 155 155 203 203 203 203 203 203 52 52 52 52 9 9 9 9
 101 101 101 25 25 25 25 25 104 104 153 153 153 155 88 1 1 1 1 203
 203 52 52 52 52 9 9 86 86 86 86 86 210 210 210 210 104 104 104 104
 153 88 88 88 88 88 1 1 1 1 52 52 52 52 86 86 86 86 86 86
 232 210 210 210 210 210 108 108 108 108 147 88 88 88 88 1 1 1 1 52
 196 196 196 196 86 86 86 86 86 232 210 210 210 210 108 108 108 108 108 147
 147 147 88 88 1 1 1 1 64 196 196 196 196 235 75 240 240 240 233 210
 210 210 108 108 108 108 108 108 147 147 147 147 88 88 1 64 64 64 196 196
 196 196 75 240 240 240 240 233 233 240 240 108 108 38 108 108 108 147 147 147
 147 147 88 64 64 64 64 191 196 196 196 240 240 240 240 233 233 233 240 240
 108 108 108 108 108 108 147 147 147 147 147 21 21 191 191 191 191 191 196 240
 240 240 240 240 233 233 233 240 240 74 108 108 108 108 108 147 147 21 21 21
 21 21 191 191 191 191 191 191 59 59 240 240 240 240 240 240 240 240 240 108
 108 108 108 33 33 21 21 21 21 21 21 191 191 191 191 191 191 59 59 240
 240 240 240 240 240 240 240 240 211 211 211 33 33 33 21 21 21 21 21 21
 191 191 191 191 191 191 59 59 240 240 240 240 240 240 240 240 211 211 211 211
 33 33 33 33 21 21 21 21 21 191 191 191 77 77 77 240 240 240 240 240
 240 240 240 240 240 211 211 211 211 33 33 33 192 192 21 21 21 21 77 77
 77 77 77 197 197 197 240 240 240 240 240 240 240 240 211 211 211 211 33 33
 192 192 192 192 21 21 21 77 77 77 77 197 197 197 197 242 240 240 240 240
 240 240 240 23 23 23 23 33 33 192 192 192 192 192 21 21 77 77 77 197
 197 197 197 197 242 242 242 240 240 240 240 23 23 23 23 23 23 23 192 192
 192 192 192 192 21 77 77 77 197 197 197 197 197 242 242 242 8 10 10 23
 23 23 23 23 23 23 23 192 192 192 192 192 192 192 98 98 98 197 197 197
 197 197 13 13 13 13 10 10 10 10 23 23 23 23 23 23 192 114 114 114
 192 89 122 98 98 98 197 197 197 197 13 13 13 13 13 10 10 10 10 23
 23 23 23 23 24 24 24 114 71 89 89 122 122 98 98 65 197 197 13 13
 13 13 13 10 10 178 178 178 10 23 23 23 24 24 24 24 71 71 89 89
 122 122 60 60 213 213 213 13 13 13 13 13 178 178 178 178 178 10 10 23
 23 24 24 24 24 71 71 89 89 89 89 60 60 213 213 213 213 13 13 13
 178 178 178 178 178 178 10 10 10 24 24 24 24 24 71 71 61 89 89 60
 60 60 213 213 213 213 213 13 13 178 178 178 178 178 178 171 171 171 24 24
 24 24 24 71 61 61 61 228 228 60 60 213 213 213 213 213 130 204 204 204
 204 68 68 171 171 171 171 171 139 139 139 139 61 61 61 228 228 228 228 60
 213 213 213 213 9 9 204 204 204 204 204 171 171 171 171 171 139 139 139 139
 139 61 61 228 228 228 228 228 228 52 52 52 9 9 9 9 204 204 204 204
 204 171 171 171 171 139 139 139 139 139 139 226 228 228 228 228 228 228 52 52
 52 9 9 9 9 204 204 204 204 204 204 171 171 171 139 139 139 139 139 226
 226 226 228 228 228 228 52 52 52 52 9 9 9 9 9 204 204 204 204 25
 25 25 25 139 139 139 139 139 226 226 226 203 203 203 52 52 52 52 52 9
 9 9 9 9 204 204 204 25 25 25 25 25 153 153 139 139 155 226 226 203