# vtk DataFile Version 2.0
Data set from ImportExport Version 6.5.171.b0b162591
ASCII

DATASET RECTILINEAR_GRID
DIMENSIONS 30 30 30
X_COORDINATES 30 float
-1.250000 1.250000 3.750000 6.250000 8.750000 11.250000 13.750000 16.250000 18.750000 21.250000 23.750000 26.250000 28.750000 31.250000 33.750000 36.250000 38.750000 41.250000 43.750000 46.250000 48.750000 
51.250000 53.750000 56.250000 58.750000 61.250000 63.750000 66.250000 68.750000 71.250000 
Y_COORDINATES 30 float
-1.250000 1.250000 3.750000 6.250000 8.750000 11.250000 13.750000 16.250000 18.750000 21.250000 23.750000 26.250000 28.750000 31.250000 33.750000 36.250000 38.750000 41.250000 43.750000 46.250000 48.750000 
51.250000 53.750000 56.250000 58.750000 61.250000 63.750000 66.250000 68.750000 71.250000 
Z_COORDINATES 30 float
-1.250000 1.250000 3.750000 6.250000 8.750000 11.250000 13.750000 16.250000 18.750000 21.250000 23.750000 26.250000 28.750000 31.250000 33.750000 36.250000 38.750000 41.250000 43.750000 46.250000 48.750000 
51.250000 53.750000 56.250000 58.750000 61.250000 63.750000 66.250000 68.750000 71.250000 
CELL_DATA 24389
SCALARS FeatureIds int 1
LOOKUP_TABLE default
 176 176 176 129 129 129 172 172 172 172 172 63 63 63 63 91 91 91 91 138
 138 138 138 138 138 138 176 176 176 176 129 129 129 129 129 129 208 208 208 208
 63 63 63 63 91 91 91 180 138 138 138 138 138 138 138 176 176 176 129 129
 129 129 129 129 129 208 208 208 208 63 63 63 63 91 91 91 180 180 138 138
 138 138 138 138 254 254 176 149 149 129 129 129 129 129 208 208 208 208 208 63
 63 63 91 91 180 180 180 180 138 138 138 138 138 254 149 149 149 149 149 129
 129 129 129 208 208 208 208 208 63 63 63 91 91 180 180 180 9 9 9 9
 9 9 149 149 149 149 149 149 149 129 129 249 249 249 249 249 208 256 256 166
 91 91 180 180 9 9 9 9 136 136 136 136 149 149 149 149 149 149 129 249
 249 249 249 229 229 229 256 256 166 166 118 9 9 9 9 9 136 136 136 136
 136 149 149 149 149 149 149 149 249 249 249 249 229 229 229 256 256 256 256 118
 140 9 9 9 136 136 136 136 136 136 149 149 149 149 149 149 149 249 249 249
 229 229 229 256 256 256 256 256 140 140 140 140 9 136 136 136 136 136 136 149
 149 210 210 210 210 210 249 249 249 229 229 256 256 256 256 256 256 140 140 140
 140 140 140 136 136 136 136 136 210 210 210 210 210 210 210 186 186 22 22 22
 256 256 256 256 256 107 107 107 140 140 140 140 140 136 136 136 136 210 210 210
 210 210 210 210 186 186 186 22 22 22 22 256 256 256 107 107 107 140 140 140
 140 140 140 195 195 195 210 210 210 210 210 210 210 186 186 186 186 22 22 22
 22 256 256 107 107 107 140 140 140 140 140 140 195 195 195 195 210 210 210 210
 74 74 74 186 186 186 22 22 22 22 256 256 155 155 155 155 155 155 140 140
 33 33 195 51 51 51 51 210 210 74 74 74 74 186 186 247 247 22 22 22
 155 155 155 155 155 155 155 155 33 33 33 33 51 51 51 51 51 74 74 74
 74 74 186 247 247 247 22 22 22 155 155 155 155 155 155 155 155 33 33 33
 33 51 51 51 51 51 74 74 74 74 74 74 247 247 247 247 247 116 155 155
 155 155 155 155 155 155 33 33 33 33 51 51 51 117 117 117 74 74 74 60
 60 247 247 247 116 116 116 116 116 155 155 155 155 155 155 33 33 33 33 33
 51 51 117 117 117 97 97 97 97 60 60 60 116 116 116 116 116 116 116 155
 155 155 155 155 33 33 33 228 228 51 117 117 117 117 97 97 97 97 60 60
 60 116 116 116 116 116 116 116 116 144 144 144 144 105 105 228 228 228 228 117
 117 117 117 97 97 97 97 60 60 60 116 116 116 116 116 116 116 126 144 144
 144 144 75 105 105 228 228 228 117 117 117 117 97 97 97 97 60 60 60 116
 116 116 116 116 116 126 126 126 144 144 75 75 105 105 105 228 228 117 213 213
 213 213 2 142 142 142 142 142 116 116 116 116 116 116 126 126 126 126 144 105
 105 105 105 105 105 213 213 213 213 213 213 2 142 142 142 142 142 142 116 116
 116 116 126 126 126 126 126 126 126 105 105 105 105 105 213 213 213 213 213 213
 2 2 142 142 142 142 172 172 116 116 96 96 126 126 126 126 126 126 105 105
 105 105 105 213 213 176 176 176 176 2 2 142 142 172 172 172 172 172 96 96
 96 96 126 126 126 126 126 11 11 11 11 101 176 176 176 176 176 176 176 176
 172 172 172 172 172 112 112 112 96 96 96 126 126 126 126 11 11 11 11 11
 101 176 176 176 176 176 176 176 176 172 172 172 172 172 112 112 112 96 96 96
 126 126 138 138 11 11 11 11 11 101 176 176 176 176 176 176 176 172 172 172
 172 172 172 112 112 63 63 91 91 91 91 138 138 138 138 11 11 11 101 176
 176 176 176 176 176 176 176 172 172 172 172 172 63 63 63 63 91 91 91 91
 138 138 138 138 138 138 138 176 176 176 176 176 129 129 129 129 172 172 208 208
 208 63 63 63 63 91 91 91 180 138 138 138 138 138 138 138 76 176 176 149
 129 129 129 129 129 208 208 208 208 208 63 63 63 63 91 91 91 180 180 138
 138 138 138 138 138 254 254 254 149 149 149 129 129 129 208 208 208 208 208 208
 63 63 63 91 91 180 180 180 180 138 138 138 138 254 254 254 149 149 149 149
 149 129 129 208 208 208 208 208 208 63 63 63 91 91 180 180 180 9 9 9
 9 9 254 254 149 149 149 149 149 149 149 149 249 249 249 249 249 208 166 166
 166 166 118 180 180 9 9 9 9 9 136 136 149 149 149 149 149 149 149 149
 249 249 249 249 249 229 229 166 166 166 166 118 180 180 9 9 9 9 9 136
 136 136 149 149 149 149 149 149 149 249 249 249 249 229 229 229 166 166 166 166
 118 140 140 9 9 9 136 136 136 136 136 149 149 149 149 149 149 149 249 249
 249 229 229 229 229 256 166 166 166 118 140 140 140 140 136 136 136 136 136 136
 149 149 210 210 210 210 210 249 249 249 229 229 229 256 256 256 256 256 140 140
 140 140 140 140 136 136 136 136 136 210 210 210 210 210 210 210 186 186 249 22
 22 256 256 256 256 256 107 107 107 140 140 140 140 135 135 136 195 195 210 210
 210 210 210 210 210 186 186 186 186 22 22 22 256 256 107 107 107 107 140 140
 140 140 140 195 195 195 195 195 210 210 210 210 210 210 186 186 186 186 22 22
 22 22 256 107 107 107 107 140 140 140 140 140 195 195 195 195 195 210 210 210
 210 74 74 74 186 186 186 186 22 22 22 22 155 155 155 155 155 155 155 155
 33 33 195 195 195 51 51 51 210 210 74 74 74 74 186 186 186 247 22 22
 22 155 155 155 155 155 155 155 155 33 33 33 33 51 51 51 51 51 74 74
 74 74 74 186 186 247 247 22 22 155 155 155 155 155 155 114 155 155 33 33
 33 33 51 51 51 51 51 74 74 74 74 74 74 247 247 247 247 116 116 155
 155 155 155 155 155 155 155 33 33 33 33 51 51 51 117 117 117 97 97 74
 74 74 247 247 247 116 116 116 116 237 155 155 155 155 155 155 33 33 33 33
 33 51 51 117 117 117 97 97 97 97 97 60 60 161 116 116 116 116 116 116
 155 155 155 155 155 33 33 33 33 33 51 117 117 117 117 97 97 97 97 97
 60 60 116 116 116 116 116 116 116 126 155 144 155 105 105 105 105 105 228 117
 117 117 117 117 97 97 97 97 97 60 60 116 116 116 116 116 116 116 126 126
 126 144 75 75 105 105 105 228 117 117 117 117 117 97 97 97 97 142 142 142
 47 47 116 116 116 116 126 126 126 126 126 75 75 75 75 75 75 213 213 213
 213 213 213 2 142 142 142 142 142 47 116 116 116 116 126 126 126 126 126 126
 105 105 105 75 75 75 213 213 213 213 213 213 2 2 142 142 142 142 142 116
 116 116 96 126 126 126 126 126 126 105 105 105 105 75 75 213 213 213 213 213
 213 2 2 142 142 142 142 172 172 206 206 96 96 126 126 126 126 126 105 105
 105 105 75 213 213 213 176 176 176 176 2 2 2 142 172 172 172 172 206 206
 96 96 96 126 126 126 126 126 105 11 105 101 101 101 176 176 176 176 176 176
 2 172 172 172 172 172 112 112 206 96 96 96 126 126 126 126 138 11 11 11
 101 101 101 176 176 176 176 176 176 176 172 172 172 172 172 112 112 112 96 96
 96 126 126 138 138 138 11 11 11 101 101 101 176 176 176 176 176 176 172 172
 172 172 172 172 112 112 63 63 91 91 91 91 138 138 138 138 11 11 101 101
 101 176 176 176 176 176 176 172 172 172 172 172 172 63 63 63 63 91 91 91
 91 138 138 138 138 138 138 76 101 101 176 176 176 176 176 129 209 209 172 208
 208 208 63 63 63 63 91 91 91 180 138 138 138 138 138 138 76 76 254 254
 149 149 129 129 129 129 208 208 208 208 208 63 63 63 63 91 91 91 180 180
 138 138 138 138 138 76 254 254 254 149 149 149 149 129 129 208 208 208 208 208
 208 63 63 63 91 91 180 180 180 180 138 138 138 138 254 254 254 254 149 149
 149 149 149 129 208 208 208 208 208 208 63 63 63 91 91 180 180 180 9 9
 9 9 9 254 254 254 149 149 149 149 149 149 249 249 249 249 249 249 208 166
 166 166 118 118 180 180 9 9 9 9 9 9 254 254 149 149 149 149 149 149
 149 249 249 249 249 249 229 229 166 166 166 118 118 118 180 9 9 9 9 9
 136 136 254 149 149 149 149 149 149 149 249 249 249 249 229 229 229 166 166 166
 166 118 118 140 9 9 9 9 136 136 136 149 149 149 149 149 149 149 149 249
 249 249 229 229 229 229 166 166 166 118 118 118 140 140 140 135 135 136 136 136
 48 149 149 210 210 210 210 210 249 249 249 229 229 229 229 166 166 166 118 118
 140 140 140 140 135 135 135 136 195 48 210 210 210 210 210 210 210 186 186 186
 229 229 229 229 256 256 166 107 107 107 140 140 140 135 135 135 195 195 195 210
 210 210 210 210 210 210 186 186 186 186 186 22 22 256 256 107 107 107 107 140
 140 140 135 135 135 195 195 195 195 210 210 210 210 210 210 186 186 186 186 186
 22 22 22 256 107 107 107 107 140 140 140 140 135 195 195 195 195 195 195 210
 210 210 74 74 186 186 186 186 186 22 22 22 22 242 155 155 155 155 155 155
 155 195 195 195 195 195 195 195 51 210 210 74 74 74 74 186 186 186 186 22
 22 242 242 155 155 155 155 155 155 155 33 33 195 195 195 51 51 51 51 74
 74 74 74 74 74 186 186 186 161 161 242 242 155 155 155 155 155 155 155 33
 33 33 33 51 51 51 51 51 74 74 74 74 74 74 186 186 161 161 161 242
 242 155 155 155 155 155 155 155 33 33 33 33 51 51 51 117 117 117 97 97
 97 74 74 161 161 161 161 161 242 237 237 155 155 155 155 155 155 33 33 33
 33 33 51 51 117 117 117 97 97 97 97 97 97 161 161 161 161 116 116 237
 242 155 155 155 155 155 33 33 33 33 33 51 117 117 117 117 97 97 97 97
 97 60 161 161 161 161 116 116 116 242 126 155 155 169 169 105 105 105 33 66
 117 117 117 117 117 97 97 97 97 97 60 47 47 47 47 116 116 116 126 126
 126 126 169 169 105 105 105 105 66 117 117 213 213 213 213 97 97 142 142 142
 47 47 47 47 116 116 126 126 126 126 126 169 105 105 105 75 75 75 213 213
 213 213 213 213 2 2 142 142 142 142 47 47 47 116 116 126 126 126 126 126
 126 105 105 105 75 75 75 213 213 213 213 213 213 2 2 2 142 142 142 47
 23 206 206 206 126 126 126 126 126 126 105 105 105 105 75 213 213 213 213 213
 213 213 2 2 2 142 142 142 23 23 206 206 206 96 126 126 126 126 126 105
 105 105 35 35 213 213 213 213 213 213 213 2 2 2 142 172 172 23 23 206
 206 206 96 96 126 126 126 126 35 35 35 35 101 101 101 213 176 176 176 176
 2 2 172 172 172 172 172 112 206 206 206 96 96 126 126 126 138 35 35 35
 35 101 101 101 101 176 176 176 176 176 2 172 172 172 172 172 112 112 206 206
 96 96 126 126 138 138 138 138 138 101 101 101 101 101 176 176 176 176 176 172
 172 172 172 172 172 112 112 63 63 91 91 91 91 138 138 138 138 138 101 101
 101 101 101 176 176 176 176 176 209 209 209 172 172 172 63 63 63 63 91 91
 91 91 138 138 138 205 205 205 76 76 101 101 254 176 176 176 209 209 209 209
 209 243 243 63 63 63 63 91 91 91 180 138 138 138 205 205 205 76 76 254
 254 254 254 129 129 209 209 209 209 243 243 243 243 63 63 63 91 91 91 180
 180 138 138 205 205 205 76 254 254 254 254 149 149 149 129 209 209 243 243 243
 243 243 63 63 63 91 91 180 180 180 180 138 205 205 205 254 254 254 254 149
 149 149 149 149 128 243 243 243 243 243 243 63 63 118 118 118 180 180 180 9
 9 9 9 254 254 254 254 254 149 149 149 149 149 128 249 249 249 249 243 243
 166 166 118 118 118 118 180 9 9 9 9 9 254 254 254 254 254 149 149 149
 149 149 249 249 249 249 229 229 166 166 166 166 118 118 118 118 9 9 9 9
 9 136 254 254 254 149 149 149 149 149 149 249 249 249 229 229 229 166 166 166
 166 118 118 118 118 9 9 9 9 9 136 48 254 149 149 211 211 211 211 211
 211 229 229 229 229 229 229 166 166 166 118 118 118 118 140 135 135 135 135 48
 48 48 48 211 211 211 211 211 211 211 229 229 229 229 229 229 166 166 118 118
 118 118 140 140 135 135 135 135 48 48 48 48 211 211 211 211 211 211 145 145
 186 229 229 229 229 166 166 118 118 118 140 140 140 135 135 135 135 48 48 48
 48 210 210 210 210 210 210 145 186 186 186 186 22 22 256 166 118 107 107 140
 140 140 135 135 135 135 195 195 195 195 195 210 210 210 210 210 186 186 186 186
 186 22 22 22 166 107 107 107 140 140 140 140 135 135 195 195 195 195 195 195
 210 210 210 74 74 186 186 186 186 186 22 22 22 242 242 155 155 155 155 155
 155 135 195 195 195 195 195 195 195 51 210 210 74 74 74 186 186 186 186 186
 161 161 242 242 242 155 155 155 155 155 155 195 195 195 195 195 195 195 51 6
 6 74 74 74 74 186 186 186 161 161 161 242 242 242 237 155 189 189 155 155
 33 33 33 195 195 51 51 51 6 6 6 74 74 74 74 186 161 161 161 161
 242 242 242 237 189 189 189 189 189 33 33 33 33 33 51 51 117 117 6 6
 6 97 74 74 161 161 161 161 161 242 242 237 237 242 189 189 189 189 33 33
 33 33 33 51 51 117 117 6 6 97 97 97 97 161 161 161 161 161 161 242
 242 242 242 189 169 169 169 169 33 66 66 66 66 117 117 117 117 97 97 97
 97 97 161 161 161 161 161 161 242 242 242 242 169 169 169 169 169 105 66 66
 66 66 117 213 213 213 97 97 97 97 97 161 161 161 47 161 161 116 242 242
 126 126 169 169 169 169 105 66 66 66 66 213 213 213 213 213 97 97 142 142
 142 47 47 47 47 47 116 126 126 126 126 169 169 169 169 105 75 75 66 213
 213 213 213 213 213 2 2 142 142 142 142 47 47 47 47 126 126 244 244 244
 126 169 169 105 105 75 75 213 213 213 213 213 213 213 2 2 2 142 142 142
 23 23 206 206 206 126 244 244 244 244 169 169 105 105 35 35 213 213 213 213
 213 213 213 2 2 2 142 142 23 23 23 206 206 206 206 244 244 244 244 244
 35 35 35 35 35 213 213 213 213 213 213 213 2 2 2 2 172 172 23 23
 206 206 206 206 126 244 126 244 244 35 35 35 35 101 101 101 213 176 176 176
 176 173 173 173 172 172 172 23 23 206 206 206 206 96 126 126 244 35 35 35
 35 35 101 101 101 101 176 176 176 176 173 173 172 172 172 172 172 112 206 206
 206 206 96 126 83 83 138 35 35 35 35 101 101 101 101 176 176 176 176 176
 172 172 172 172 172 172 112 112 63 63 91 91 91 83 138 138 205 205 205 205
 101 101 101 101 176 176 176 176 209 209 209 209 209 209 172 243 63 63 63 91
 91 83 83 83 205 205 205 205 205 76 76 101 254 254 254 176 209 209 209 209
 209 209 243 243 243 63 63 63 91 91 83 83 205 205 205 205 205 76 76 76
 254 254 254 254 254 209 209 209 209 209 243 243 243 243 111 111 111 111 91 130
 130 205 205 205 205 205 205 76 254 254 254 254 254 254 254 209 209 209 243 243
 243 243 243 111 111 111 111 111 130 130 180 205 205 205 205 205 254 254 254 254
 254 254 149 149 128 128 128 128 243 243 243 243 111 111 118 118 118 118 130 180
 9 9 9 205 254 254 254 254 254 254 234 149 149 128 128 128 128 128 243 243
 243 166 118 118 118 118 118 118 130 9 9 9 204 254 254 254 254 254 234 234
 234 149 149 128 128 128 128 229 229 166 166 166 118 118 118 118 118 118 9 9
 9 204 204 254 254 254 254 211 211 211 211 211 128 128 128 229 229 229 166 166
 166 118 118 118 118 118 118 92 135 135 204 204 48 254 254 254 211 211 211 211
 211 211 229 229 229 229 229 229 166 166 118 118 118 118 118 118 135 135 135 135
 48 48 48 211 211 211 211 211 211 211 145 145 145 229 229 229 229 166 118 118
 118 118 118 118 140 135 135 135 135 48 48 48 48 211 211 211 211 211 211 145
 145 145 145 145 229 229 166 118 118 118 118 118 140 140 135 135 135 135 48 48
 48 48 211 211 211 211 211 145 145 145 145 145 145 145 145 256 118 118 118 118
 140 140 140 135 135 135 48 48 48 48 48 48 210 210 210 210 145 145 145 145
 145 145 145 145 139 118 118 118 189 189 189 189 135 135 135 48 48 48 48 48
 48 210 210 210 6 145 145 145 145 145 145 145 22 242 242 242 242 189 189 189
 189 189 135 195 195 195 195 195 195 195 51 6 6 6 74 74 145 145 186 186
 161 161 242 242 242 242 189 189 189 189 189 189 195 195 195 195 195 195 195 6
 6 6 6 6 6 74 186 186 161 161 161 242 242 242 242 237 189 189 189 189
 189 189 195 195 195 195 195 51 6 6 6 6 6 6 74 74 161 161 161 161
 161 242 242 242 237 189 189 189 189 189 189 33 33 195 195 51 51 6 6 6
 6 6 6 158 158 161 161 161 161 161 242 242 237 242 242 189 189 189 189 189
 66 66 66 66 66 51 117 6 6 6 6 158 158 158 161 161 161 161 161 161
 242 242 242 242 189 169 169 169 169 66 66 66 66 66 66 117 6 6 6 158
 158 158 158 161 161 161 161 161 161 242 242 242 242 169 169 169 169 169 66 66
 66 66 66 66 213 213 213 158 158 158 158 158 161 161 161 161 161 161 161 242
 242 242 169 169 169 169 169 66 66 66 66 66 100 213 213 213 213 158 158 158
 158 46 220 220 220 220 220 220 244 244 244 169 169 169 169 169 169 66 66 100
 100 100 213 213 213 213 213 2 2 46 46 220 220 220 220 220 220 244 244 244
 244 169 169 169 169 169 66 100 100 100 100 213 213 213 213 2 2 2 46 46
 46 220 220 206 206 206 244 244 244 244 244 169 35 35 35 35 35 100 100 213
 213 213 213 213 173 173 2 46 46 46 23 23 206 206 206 206 244 244 244 244
 35 35 35 35 35 35 100 100 213 213 213 213 173 173 173 173 46 46 23 23
 23 206 206 206 206 244 244 244 244 35 35 35 35 35 35 101 101 213 213 213
 213 173 173 173 173 172 172 172 23 23 206 206 206 206 206 244 83 83 35 35
 35 35 35 35 101 101 101 176 176 176 173 173 173 173 172 172 172 172 112 206
 206 206 206 83 83 83 83 83 35 35 35 35 101 101 101 101 176 176 176 176
 173 173 209 209 209 172 172 112 206 63 63 83 83 83 83 83 205 205 205 205
 205 76 101 101 101 254 254 176 209 209 209 209 209 209 209 209 243 111 111 111
 111 83 83 83 83 83 205 205 205 76 76 76 76 254 254 254 254 209 209 209
 209 209 209 243 243 243 111 111 111 111 111 83 83 83 205 205 205 205 76 76
 76 254 254 254 254 254 254 209 209 209 209 243 243 243 243 111 111 111 111 111
 130 130 130 205 205 205 205 76 76 254 254 254 254 254 254 254 209 209 209 243
 243 243 243 243 111 111 111 111 111 130 130 130 205 205 205 205 205 254 254 254
 254 254 254 254 234 128 128 128 128 243 243 243 243 111 111 111 118 118 130 130
 130 130 205 205 204 254 254 254 254 254 254 234 234 234 128 128 128 128 128 243
 243 243 111 118 118 118 118 118 130 130 92 92 204 204 204 254 254 254 254 234
 234 234 234 234 128 128 128 128 243 243 243 118 118 118 118 118 118 118 92 92
 92 204 204 204 254 254 254 234 234 234 234 234 234 128 128 128 128 229 229 166
 166 118 118 118 118 118 118 92 92 92 92 204 204 226 226 234 234 211 211 211
 211 211 128 128 128 128 229 229 118 118 118 118 118 118 118 118 92 92 92 92
 204 226 226 226 226 211 211 211 211 211 211 145 145 145 145 103 103 118 118 118
 118 118 118 118 118 135 135 135 135 48 48 48 48 48 211 211 211 211 211 145
 145 145 145 145 145 103 103 118 118 118 118 118 118 140 140 135 135 135 48 48
 48 48 48 211 211 211 211 211 145 145 145 145 145 145 145 145 118 118 118 118
 118 118 140 140 135 135 135 48 48 48 48 48 48 211 211 211 145 145 145 145
 145 145 145 145 145 139 139 118 118 189 189 189 189 135 135 135 48 48 48 48
 48 48 211 211 211 145 145 145 145 145 145 145 145 139 139 139 242 242 189 189
 189 189 189 189 195 195 195 48 48 48 48 6 6 6 6 6 145 145 145 145
 145 161 161 242 242 242 242 189 189 189 189 189 189 189 195 195 195 195 195 195
 6 6 6 6 6 162 162 145 145 161 161 161 242 242 242 242 242 189 189 189
 189 189 189 62 195 195 195 195 195 6 6 6 6 6 6 162 162 161 161 161
 161 161 242 242 242 237 189 189 189 189 189 189 62 33 195 195 195 51 6 6
 6 6 6 6 158 158 161 161 161 161 161 242 242 237 242 242 189 189 189 189
 189 66 66 66 66 66 66 6 6 6 6 6 158 158 158 161 161 161 161 161
 161 237 242 242 242 189 169 169 169 169 66 66 66 66 66 66 233 233 6 6
 158 158 158 158 161 161 161 161 161 161 242 242 242 242 169 169 169 169 169 66
 66 66 66 66 66 233 233 233 158 158 158 158 158 161 161 161 161 161 161 161
 242 242 242 169 169 169 169 169 66 66 66 66 100 100 233 233 233 158 158 158
 158 158 46 220 220 220 220 220 161 242 194 194 169 169 169 169 169 169 66 66
 100 100 100 100 213 213 213 213 2 46 46 46 46 220 220 220 220 220 194 194
 194 194 169 169 169 169 169 66 100 100 100 100 213 213 213 213 173 173 46 46
 46 46 220 220 220 34 34 244 244 244 194 194 169 35 35 35 35 100 100 100
 100 213 213 213 173 173 173 173 46 46 46 23 23 34 34 34 34 244 244 194
 194 35 35 35 35 35 35 100 100 100 213 213 213 173 173 173 173 46 46 46
 23 23 34 34 34 34 244 244 194 83 35 35 35 35 35 35 61 61 61 213
 213 173 173 173 173 173 173 172 172 23 34 34 34 34 34 34 83 83 83 83
 35 35 35 35 35 61 61 61 176 176 173 173 173 173 173 173 172 172 172 34
 34 34 34 34 83 83 83 83 83 35 35 35 35 35 101 101 101 176 176 173
 173 173 173 209 209 209 209 209 34 34 34 34 83 83 83 83 83 83 205 205
 205 205 76 76 101 101 254 254 31 209 209 209 209 209 209 209 209 111 111 111
 111 111 83 83 83 83 83 205 205 205 76 76 76 254 254 254 254 254 170 209
 209 209 209 209 243 243 111 111 111 111 111 83 83 83 83 83 205 205 205 76
 76 76 254 254 254 254 254 170 170 209 209 209 243 243 243 111 111 111 111 111
 111 130 130 130 130 205 205 205 76 76 254 254 254 254 254 254 170 170 170 209
 243 243 243 243 243 111 111 111 111 111 130 130 130 130 205 205 205 205 254 254
 254 254 254 234 234 234 170 128 128 128 243 243 243 111 111 111 111 111 130 130
 130 130 130 204 204 204 204 254 254 254 254 234 234 234 234 234 128 128 128 128
 243 243 111 111 111 111 118 118 130 130 130 92 92 204 204 204 254 254 254 254
 234 234 234 234 234 128 128 128 128 243 243 111 111 118 118 118 118 118 118 92
 92 92 204 204 204 204 254 254 234 234 234 234 234 234 234 128 128 128 243 243
 118 118 118 118 118 118 118 118 92 92 92 92 204 204 226 226 234 234 234 234
 234 234 234 234 128 128 145 103 103 118 118 118 118 118 118 118 118 92 92 92
 92 204 226 226 226 226 234 211 211 211 211 145 145 145 145 145 103 103 103 118
 118 118 118 118 118 118 92 92 92 92 226 226 226 226 226 211 211 211 211 211
 145 145 145 145 145 145 103 103 118 118 118 118 118 118 207 207 207 207 207 48
 48 48 48 48 211 211 211 211 211 145 145 145 145 145 145 103 103 139 139 118
 118 118 118 207 207 207 207 207 48 48 48 48 48 48 211 211 211 145 145 145
 145 145 145 145 145 139 139 139 139 139 189 189 189 207 207 207 207 48 48 48
 48 48 48 211 211 211 145 145 145 145 145 145 145 145 139 139 139 139 139 189
 189 189 189 189 189 207 48 48 48 48 48 48 64 6 6 162 162 162 162 145
 145 145 145 139 139 139 242 242 215 215 189 189 189 189 62 62 62 195 195 195
 195 64 6 6 6 162 162 162 162 145 145 161 161 242 242 242 242 215 215 215
 189 189 189 62 62 62 195 195 195 64 64 6 6 6 6 162 162 162 161 161
 161 161 161 242 242 242 242 215 215 189 189 189 62 62 62 62 66 66 64 64
 6 6 6 6 6 158 158 161 161 161 161 161 242 242 237 242 215 215 189 189
 189 62 66 66 66 66 66 64 64 6 6 6 6 158 158 158 161 161 161 161
 161 161 237 242 242 242 215 189 169 169 169 66 66 66 66 66 66 233 233 16
 16 158 158 158 158 161 161 161 161 161 161 237 242 242 242 169 169 169 169 169
 66 66 66 66 66 66 233 233 233 16 158 158 158 158 161 161 161 161 161 161
 161 242 242 242 169 169 169 169 169 66 66 66 66 100 100 233 233 233 233 158
 158 158 46 46 220 220 220 220 220 161 194 194 194 194 169 169 169 169 169 66
 66 100 100 100 233 233 233 233 173 158 46 46 46 46 220 220 220 220 220 194
 194 194 194 194 169 169 169 169 66 100 100 100 100 100 233 213 173 173 173 173
 46 46 46 220 220 34 34 34 194 194 194 194 194 169 35 35 35 35 100 100
 100 100 100 213 213 173 173 173 173 46 46 46 46 34 34 34 34 34 194 194
 194 194 194 35 35 35 35 35 61 61 61 61 213 173 173 173 173 173 46 46
 46 46 34 34 34 34 34 194 194 194 194 35 35 35 35 35 35 61 61 61
 61 61 173 173 173 173 173 173 46 46 34 34 34 34 34 34 83 83 83 83
 83 35 35 35 35 35 61 61 61 61 173 173 173 173 173 173 173 209 209 34
 34 34 34 34 34 83 83 83 83 83 83 35 35 35 35 61 61 61 176 173
 173 173 173 173 209 209 209 209 209 34 34 34 34 34 83 83 83 83 83 83
 205 205 76 76 76 101 61 31 31 31 31 170 209 209 209 209 209 243 111 111
 111 111 111 83 83 83 83 83 205 205 205 76 76 76 254 254 254 31 31 170
 170 170 209 209 243 243 243 111 111 111 111 111 83 83 83 83 83 205 205 205
 76 76 76 254 254 254 254 170 170 170 170 209 243 243 243 243 111 111 111 111
 111 111 130 130 130 130 205 205 205 76 76 254 254 254 254 254 170 170 170 170
 170 243 243 243 243 111 111 111 111 111 130 130 130 130 130 205 205 205 205 254
 254 254 254 254 234 234 170 170 170 170 243 243 243 243 111 111 111 111 111 130
 130 130 130 130 204 204 204 204 254 254 254 254 234 234 234 234 170 170 128 128
 243 243 243 111 111 111 111 118 118 130 130 130 92 204 204 204 204 204 254 254
 234 234 234 234 234 234 234 128 128 128 243 243 111 111 111 118 118 118 118 130
 92 92 92 204 204 204 204 254 234 234 234 234 234 234 234 234 128 128 103 103
 103 111 118 118 118 118 118 118 118 92 92 92 92 204 204 226 226 234 234 234
 234 234 234 234 234 145 103 103 103 103 103 118 118 118 118 118 118 118 92 92
 92 92 204 226 226 226 226 234 234 234 234 234 234 145 145 145 103 103 103 103
 103 118 118 118 118 118 118 92 92 92 92 226 226 226 226 226 234 211 211 211
 211 145 145 145 145 145 103 103 103 103 118 118 118 118 118 207 207 207 207 207
 226 226 226 226 226 211 211 211 211 145 145 145 145 145 145 145 103 103 139 139
 139 139 139 118 207 207 207 207 207 207 48 48 48 48 48 211 211 211 145 145
 145 145 145 145 145 103 139 139 139 139 139 139 215 189 207 207 207 207 207 48
 48 48 48 48 64 168 168 168 145 145 145 145 145 145 145 139 139 139 139 139
 215 215 215 189 189 207 207 207 48 48 48 48 48 64 64 168 168 162 162 162
 145 145 145 145 139 139 139 139 139 215 215 215 215 189 189 62 62 62 62 48
 48 64 64 64 64 168 162 162 162 162 145 133 133 139 139 139 139 242 215 215
 215 215 215 189 62 62 62 62 62 64 64 64 64 64 6 162 162 162 162 145
 161 161 161 161 242 242 242 215 215 215 215 215 189 62 62 62 62 62 64 64
 64 64 64 6 6 6 162 162 161 161 161 161 161 242 237 237 242 215 215 215
 189 189 62 62 66 66 66 64 64 64 64 16 16 16 158 158 158 161 161 161
 161 161 161 237 242 242 242 215 215 169 169 169 66 66 66 66 66 64 233 233
 16 16 16 158 158 158 161 161 161 161 161 161 237 242 242 242 215 169 169 169
 169 66 66 66 66 66 64 233 233 16 16 16 158 158 158 161 161 161 161 161
 161 161 242 242 194 169 169 169 169 169 66 66 66 66 100 233 233 233 233 16
 16 158 158 46 46 220 220 220 220 161 161 194 194 194 194 169 169 169 169 87
 66 66 100 100 100 233 233 233 16 173 173 173 46 46 46 220 220 220 220 194
 194 194 194 194 194 169 169 235 235 235 100 100 100 100 100 233 233 173 173 173
 173 46 46 46 220 34 34 34 34 194 194 93 194 194 194 235 235 235 235 61
 61 100 100 61 213 173 173 173 173 173 46 46 46 46 34 34 34 34 34 194
 194 194 194 194 235 235 235 235 61 61 61 61 61 61 173 173 173 173 173 46
 46 46 34 34 34 34 34 34 194 194 194 194 235 235 235 235 235 61 61 61
 61 61 61 173 173 173 173 173 173 46 46 34 34 34 34 34 34 83 83 83
 83 83 235 235 235 250 61 61 61 61 61 31 173 173 173 173 173 173 209 46
 34 34 34 34 34 34 83 83 83 83 83 83 250 250 250 61 61 61 61 31
 31 31 173 173 173 173 209 209 209 34 34 34 34 34 34 83 83 83 83 83
 83 205 205 76 76 76 61 61 31 31 31 31 31 89 89 89 89 178 178 111
 111 111 111 111 83 83 83 83 43 43 150 150 150 76 76 254 254 31 31 31
 170 170 170 89 89 178 178 178 111 111 111 111 111 83 83 43 43 43 43 150
 150 150 150 76 254 254 254 31 170 170 170 170 170 89 178 178 178 111 111 111
 111 111 111 130 130 130 43 43 150 150 150 76 254 254 254 254 170 170 170 170
 170 170 178 178 178 178 111 111 111 111 111 130 130 130 130 130 130 204 150 204
 254 254 254 254 174 174 174 170 170 170 170 178 178 178 178 111 111 111 111 111
 130 130 130 130 130 204 204 204 204 254 254 254 254 234 174 174 174 170 170 170
 178 178 178 178 111 111 111 111 111 130 130 130 130 204 204 204 204 204 204 254
 254 234 234 234 174 174 174 170 170 128 178 178 178 111 111 111 111 118 118 130
 130 92 92 204 204 204 204 204 204 234 234 234 234 174 174 174 174 174 103 103
 103 103 103 111 118 118 118 118 118 130 92 92 92 204 204 204 226 226 234 234
 234 234 234 174 174 174 203 103 103 103 103 103 103 118 118 118 118 118 92 92
 92 92 204 204 226 226 226 226 234 234 234 234 174 174 145 203 203 103 103 103
 103 103 118 118 118 118 118 118 92 92 92 204 226 226 226 226 226 234 234 234
 234 174 145 145 203 203 203 103 103 103 103 139 139 118 118 118 207 207 207 207
 207 226 226 226 226 226 211 234 234 234 145 145 145 203 203 203 103 103 103 139
 139 139 139 139 139 207 207 207 207 207 207 226 226 226 226 48 64 168 168 168
 145 145 145 203 203 203 103 139 139 139 139 139 139 215 207 207 207 207 207 207
 48 48 48 48 48 64 168 168 168 168 145 145 145 145 145 139 139 139 139 139
 139 215 215 215 215 207 207 207 207 48 48 48 48 64 64 64 168 168 168 162
 162 145 133 133 133 139 139 139 139 139 215 215 215 215 215 189 62 62 62 62
 48 64 64 64 64 168 168 168 162 162 162 133 133 133 139 139 139 139 139 215
 215 215 215 215 189 62 62 62 62 62 64 64 64 64 64 168 168 162 162 162
 133 133 133 139 139 139 12 12 12 215 215 215 215 189 62 62 62 62 64 64
 64 64 64 64 64 168 162 162 162 133 133 161 88 161 12 12 12 12 215 215
 215 215 189 62 62 62 62 64 64 64 64 64 64 16 16 16 158 158 161 161
 88 88 88 88 12 12 12 242 215 215 215 236 236 66 66 66 66 64 64 64
 64 16 16 16 16 158 158 88 88 88 88 88 88 237 242 242 242 236 169 38
 38 38 87 87 87 66 64 64 233 233 16 16 16 16 158 158 161 161 88 88
 88 88 161 242 194 194 194 38 38 38 38 87 87 87 87 87 233 233 233 233
 16 16 16 197 197 46 220 220 88 220 161 161 194 194 194 194 38 38 38 38
 87 87 87 87 87 100 233 233 233 233 197 197 197 197 46 46 220 220 220 34
 194 194 194 194 194 194 38 38 38 87 87 87 87 87 100 100 233 233 197 197
 197 197 197 197 46 34 34 34 34 34 194 194 194 194 194 38 235 235 235 250
 87 61 61 61 61 61 197 197 197 197 197 197 197 46 34 34 34 34 34 34
 194 194 194 194 235 235 235 235 250 250 61 61 61 61 61 197 197 197 197 197
 197 197 46 34 34 34 34 34 34 194 194 83 83 235 235 235 235 250 250 61
 61 61 61 31 173 173 173 197 197 197 197 197 34 34 34 34 34 34 83 83
 83 83 83 235 250 250 250 250 61 61 61 31 31 31 31 173 197 197 197 197
 197 34 34 34 34 34 34 83 83 83 83 83 83 250 250 250 250 61 61 61
 31 31 31 31 173 197 197 197 197 197 34 34 34 34 34 34 83 83 83 83
 83 83 250 250 250 250 61 61 61 31 31 31 31 31 89 89 89 89 196 196
 196 196 111 111 111 83 83 43 43 43 199 150 150 150 150 150 31 31 31 31
 31 31 170 89 89 89 89 178 196 196 111 111 111 111 181 43 43 43 43 199
 150 150 150 150 150 254 254 31 31 170 170 170 170 89 89 178 178 178 178 111
 111 111 111 181 130 43 43 43 199 150 150 150 150 254 254 254 174 170 170 170