# vtk DataFile Version 2.0
Data set from ImportExport Version 6.5.171.b0b162591
ASCII

DATASET RECTILINEAR_GRID
DIMENSIONS 30 30 30
X_COORDINATES 30 float
-1.250000 1.250000 3.750000 6.250000 8.750000 11.250000 13.750000 16.250000 18.750000 21.250000 23.750000 26.250000 28.750000 31.250000 33.750000 36.250000 38.750000 41.250000 43.750000 46.250000 48.750000 
51.250000 53.750000 56.250000 58.750000 61.250000 63.750000 66.250000 68.750000 71.250000 
Y_COORDINATES 30 float
-1.250000 1.250000 3.750000 6.250000 8.750000 11.250000 13.750000 16.250000 18.750000 21.250000 23.750000 26.250000 28.750000 31.250000 33.750000 36.250000 38.750000 41.250000 43.750000 46.250000 48.750000 
51.250000 53.750000 56.250000 58.750000 61.250000 63.750000 66.250000 68.750000 71.250000 
Z_COORDINATES 30 float
-1.250000 1.250000 3.750000 6.250000 8.750000 11.250000 13.750000 16.250000 18.750000 21.250000 23.750000 26.250000 28.750000 31.250000 33.750000 36.250000 38.750000 41.250000 43.750000 46.250000 48.750000 
51.250000 53.750000 56.250000 58.750000 61.250000 63.750000 66.250000 68.750000 71.250000 
CELL_DATA 24389
SCALARS FeatureIds int 1
LOOKUP_TABLE default
 5 5 5 5 200 200 200 200 200 200 128 128 128 128 128 128 117 117 117 117
 117 117 117 104 104 104 104 5 5 5 5 5 5 200 200 200 200 200 200 128
 128 128 128 128 117 117 117 117 117 117 117 117 104 104 104 104 5 5 209 209
 209 209 209 228 228 200 200 14 7 7 7 7 7 7 117 117 117 117 117 117
 117 41 41 41 209 209 209 209 209 209 209 209 228 228 228 228 14 7 7 7
 7 7 7 4 117 117 117 117 117 41 41 41 41 209 209 209 209 209 209 209
 209 191 191 191 191 191 7 7 7 7 7 4 4 4 4 4 117 41 41 41
 41 41 41 209 209 209 209 209 209 191 191 191 191 191 191 7 7 7 7 7
 4 4 4 4 12 12 41 41 41 41 41 41 209 209 189 209 209 209 191 191
 191 191 191 191 126 126 126 126 126 4 4 4 89 12 12 12 41 41 41 41
 41 209 209 133 133 133 133 143 143 191 191 191 126 126 126 126 126 126 126 89
 89 89 12 12 12 12 41 41 41 35 147 133 133 133 133 143 143 143 143 143
 126 126 126 126 126 126 126 126 89 89 89 12 12 12 12 12 35 35 35 35
 133 133 133 133 143 143 143 143 143 67 126 126 126 126 126 126 126 89 89 89
 12 12 12 12 220 35 35 35 35 133 133 133 133 143 143 203 203 203 67 126
 126 126 126 126 126 64 89 89 89 89 12 12 220 220 35 35 35 35 133 133
 133 133 203 203 203 203 203 67 67 126 126 126 126 64 64 64 89 89 89 89
 89 220 220 35 35 35 35 35 22 133 203 203 203 203 203 67 67 67 67 126
 126 64 64 64 64 64 89 54 89 220 220 220 35 35 35 35 35 22 22 22
 118 118 118 118 67 67 67 180 180 180 64 64 64 64 64 54 54 242 242 46
 46 35 35 35 35 22 22 22 22 118 118 118 118 118 67 180 180 180 180 180
 64 64 64 64 242 242 242 242 46 46 46 46 35 22 22 22 22 22 118 118
 118 118 181 181 180 180 180 180 180 64 64 64 71 71 242 242 242 46 46 46
 46 46 22 22 22 22 22 118 118 118 181 181 181 181 180 180 180 180 180 6
 6 71 71 71 242 242 46 46 46 46 46 22 22 22 22 22 118 118 118 181
 181 181 181 229 229 229 229 229 11 11 71 71 71 71 71 46 46 46 160 160
 160 22 22 22 22 118 118 118 181 181 181 229 229 229 229 229 11 11 11 11
 71 71 71 71 160 160 160 160 160 160 160 77 77 77 77 118 118 181 170 170
 229 229 229 229 229 11 11 11 11 11 71 71 71 160 160 160 160 160 160 160
 77 77 77 77 49 49 170 170 170 170 170 229 229 11 11 11 11 11 11 71
 25 160 160 160 160 160 160 160 160 77 77 77 49 49 49 49 170 170 170 170
 170 229 11 11 11 11 11 11 25 25 25 160 160 160 160 160 160 160 77 77
 77 49 49 49 49 135 135 170 170 170 120 120 11 11 11 11 25 25 25 25
 160 160 160 160 160 160 160 77 77 77 49 49 49 49 135 135 135 170 170 120
 120 11 11 11 11 25 25 25 25 160 160 160 160 160 160 160 53 53 158 49
 49 49 135 135 135 135 170 120 120 192 192 192 11 25 25 25 25 25 160 160
 160 160 160 160 160 53 53 158 158 49 49 135 135 135 135 170 192 192 192 192
 192 192 25 25 25 25 25 160 160 160 160 160 160 53 53 53 53 53 53 237
 237 237 237 237 237 192 192 192 192 192 192 192 25 25 3 3 202 104 104 104
 104 53 53 53 53 53 53 53 237 237 237 237 237 237 192 192 192 192 192 192
 192 117 25 3 202 202 104 104 104 104 104 53 53 53 53 53 53 237 237 237
 237 237 237 237 192 192 192 192 192 192 117 117 202 202 202 104 104 104 104 53
 53 5 5 5 5 5 200 237 237 237 14 128 128 128 128 128 128 117 117 117
 117 117 117 117 104 104 104 104 104 5 5 5 5 5 5 228 228 228 228 14
 128 128 128 128 128 117 117 117 117 117 117 117 117 104 104 104 104 5 5 209
 209 209 209 209 228 228 228 228 14 14 128 128 128 128 128 117 117 117 117 117
 117 117 117 104 104 104 209 209 209 209 209 209 228 228 228 228 228 14 14 14
 128 128 128 4 4 117 117 117 117 117 117 41 41 41 209 209 209 209 209 209
 209 209 191 191 191 191 14 14 14 7 7 7 4 4 4 4 4 117 117 41
 41 41 41 209 209 209 209 209 209 209 191 191 191 191 191 191 14 14 7 7
 4 4 4 4 4 4 12 12 41 41 41 41 13 209 209 189 189 189 189 191
 191 191 191 191 191 126 126 126 126 126 4 4 4 4 12 12 12 12 41 41
 41 147 147 189 189 189 189 143 143 143 191 191 191 126 126 126 126 126 126 126
 89 89 89 12 12 12 12 12 41 35 35 147 189 189 189 189 143 143 143 143
 143 126 126 126 126 126 126 126 126 89 89 89 12 12 12 12 12 35 35 35
 35 189 189 189 143 143 143 143 143 143 126 126 126 126 126 126 126 126 89 89
 89 89 12 12 12 220 35 35 35 35 133 133 133 143 143 143 143 143 203 126
 126 126 126 126 126 126 126 89 89 89 89 89 12 220 220 35 35 35 35 35
 119 133 143 143 143 203 203 203 67 126 126 126 126 126 126 64 89 89 89 89
 89 89 220 220 35 35 35 35 35 119 119 119 203 203 203 203 203 67 67 126
 126 126 126 64 64 64 54 54 54 54 54 220 220 35 35 35 35 35 22 22
 22 203 203 203 203 67 67 180 180 180 180 180 64 64 64 54 54 54 54 242
 46 46 35 35 35 35 177 177 22 22 118 118 118 101 101 101 180 180 180 180
 180 6 6 6 54 54 54 242 242 46 46 46 46 177 177 177 177 22 22 118
 118 118 101 101 181 180 180 180 180 180 6 6 6 71 71 71 242 242 46 46
 46 46 177 177 177 177 22 22 118 118 101 101 181 181 181 180 180 180 180 6
 6 6 71 71 71 71 242 46 46 46 46 177 177 177 22 22 22 118 118 101
 101 181 181 181 229 229 229 229 6 6 6 71 71 71 71 71 46 46 46 46
 160 160 177 22 22 22 101 101 101 101 101 181 229 229 229 229 229 11 11 11
 71 71 71 71 71 71 160 160 160 160 160 160 77 77 77 77 101 101 101 101
 170 229 229 229 229 229 11 11 11 11 71 71 71 71 160 160 160 160 160 160
 160 77 77 77 49 49 49 101 170 170 170 229 229 229 229 11 11 11 11 11
 71 71 71 160 160 160 160 160 160 160 77 77 77 49 49 49 135 170 170 170
 170 170 229 11 11 11 11 11 11 25 25 160 160 160 160 160 160 160 160 77
 77 77 49 49 49 135 135 135 170 170 170 120 11 11 11 11 11 11 25 25
 25 160 160 160 160 160 160 160 158 158 158 49 49 49 135 135 135 135 170 170
 120 11 11 11 11 11 25 25 25 25 160 160 160 160 160 160 160 158 158 158
 49 49 49 135 135 135 135 170 170 192 192 192 192 192 25 25 25 25 25 160
 160 160 160 160 160 160 158 158 158 158 49 49 135 135 135 135 170 192 192 192
 192 192 192 192 25 25 202 202 202 104 104 104 104 104 158 158 158 158 158 158
 237 237 237 237 237 237 192 192 192 192 192 192 192 192 202 202 202 202 104 104
 104 104 104 158 158 158 158 158 158 237 237 237 237 237 237 163 192 192 192 192
 192 192 117 202 202 202 202 104 104 104 104 104 158 5 5 5 5 5 237 237
 237 237 237 237 128 192 192 192 192 192 117 117 117 202 202 202 104 104 104 104
 104 5 5 5 5 5 5 237 237 237 237 14 128 128 128 128 128 117 117 117
 117 117 117 117 202 104 104 104 104 104 5 5 5 5 5 5 228 228 228 228
 14 128 128 128 128 128 117 117 117 117 117 117 117 117 104 104 104 104 104 5
 209 209 209 209 228 228 228 228 228 14 14 128 128 128 128 173 117 117 117 117
 117 117 117 104 104 104 104 209 209 209 209 209 209 228 228 228 228 228 14 14
 14 128 128 128 4 4 4 117 117 117 117 117 117 13 13 13 209 209 209 209
 209 209 228 228 228 228 228 14 14 14 14 14 4 4 4 4 4 4 117 117
 117 13 13 13 13 209 209 189 189 189 209 191 191 191 191 191 14 14 14 14
 14 4 4 4 4 4 4 4 12 12 13 13 13 13 147 209 189 189 189 189
 191 191 191 191 191 191 126 126 126 126 4 4 4 4 4 4 89 12 12 12
 13 13 147 147 189 189 189 189 189 143 143 191 191 191 126 126 126 126 126 126
 4 4 4 89 89 12 12 12 12 13 147 147 147 189 189 189 189 143 143 143
 143 143 126 126 126 126 126 126 126 89 89 89 89 89 12 12 12 12 35 35
 35 147 189 189 189 189 143 143 143 143 143 126 126 126 126 126 126 126 126 89
 89 89 89 89 12 12 220 35 35 35 35 189 119 119 143 143 143 143 143 143
 126 126 126 126 126 126 126 89 89 89 89 89 89 89 220 220 35 35 35 35
 35 119 119 119 143 143 143 143 143 67 126 126 126 126 126 126 89 89 89 89
 89 89 89 220 220 35 35 35 35 35 119 119 119 143 143 203 203 203 67 94
 126 126 126 126 6 64 89 54 54 54 54 54 220 220 35 35 35 35 35 119
 119 119 143 143 203 101 101 94 94 180 180 180 180 6 6 6 54 54 54 54
 54 46 46 46 35 35 177 177 177 119 119 118 118 101 101 101 101 180 180 180
 180 180 6 6 6 54 54 54 54 242 46 46 46 46 177 177 177 177 22 22
 118 118 101 101 101 101 180 180 180 180 180 6 6 6 71 71 71 71 242 46
 46 46 46 177 177 177 177 177 22 118 101 101 101 101 101 101 180 180 180 180
 6 6 6 71 71 71 71 71 46 46 46 46 177 177 177 177 177 22 101 101
 101 101 101 101 101 229 229 229 229 6 6 6 71 71 71 71 71 71 46 46
 46 177 177 177 177 177 22 101 101 101 101 101 101 229 229 229 229 229 6 11
 11 71 71 71 71 71 71 160 160 160 160 160 160 77 77 77 77 101 101 101
 101 101 229 229 229 229 229 11 11 11 71 71 71 71 71 71 160 160 160 160
 160 160 77 77 77 49 49 49 101 170 170 170 229 229 229 229 11 11 11 11
 71 71 71 71 160 160 160 160 160 160 160 77 77 49 49 49 49 135 170 170
 170 170 229 229 229 11 11 11 11 11 71 71 71 160 160 160 160 160 160 160
 158 158 49 49 49 49 135 135 135 170 170 170 229 11 11 11 11 11 11 25
 25 160 160 160 160 160 160 160 160 158 158 158 49 49 49 135 135 135 170 170
 170 192 192 11 11 11 11 25 25 25 160 160 160 160 160 160 160 160 158 158
 158 158 49 49 49 135 135 135 170 170 192 192 192 192 192 192 25 25 202 202
 160 160 160 160 160 160 158 158 158 158 158 158 49 49 237 237 237 163 163 192
 192 192 192 192 192 202 202 202 202 202 104 104 104 104 104 158 158 158 158 158
 158 237 237 237 237 237 163 163 163 192 192 192 192 192 202 202 202 202 202 104
 104 104 104 104 158 158 158 158 158 158 237 237 237 237 237 163 163 163 192 192
 192 192 192 117 202 202 202 202 104 104 104 104 104 158 5 5 5 158 158 237
 237 237 237 237 163 128 163 192 192 192 192 117 117 117 202 202 202 104 104 104
 104 104 5 5 5 5 5 5 228 228 228 228 14 163 128 128 128 173 173 117
 117 117 117 117 117 202 104 104 104 104 104 104 139 139 139 5 228 228 228 228
 228 14 14 128 128 128 173 173 117 117 117 117 117 117 117 104 104 104 104 31
 31 139 139 139 139 228 228 228 228 228 14 14 14 128 128 173 173 117 117 117
 117 117 117 117 104 104 104 104 31 209 139 139 139 139 228 228 228 228 228 14
 14 14 14 128 173 4 4 4 117 117 117 117 117 13 13 13 13 209 209 139
 139 139 139 228 228 228 228 228 14 14 14 14 14 107 4 4 4 4 72 72
 72 72 13 13 13 13 13 209 189 189 189 189 228 228 228 228 228 14 14 14
 14 184 107 4 4 4 4 72 72 72 72 13 13 13 13 147 147 189 189 189
 189 189 191 191 191 228 14 14 14 184 184 184 4 4 4 4 4 89 89 89
 13 13 13 147 147 147 189 189 189 189 143 143 191 191 191 122 122 122 122 184
 184 4 4 4 89 89 89 89 89 89 13 147 147 147 147 189 189 189 189 143
 143 143 143 122 122 122 122 122 122 184 184 89 89 89 89 89 89 89 89 35
 147 147 147 147 189 189 189 143 143 143 143 143 126 122 122 122 122 122 184 89
 89 89 89 89 89 89 89 89 35 35 35 147 147 119 119 119 143 143 143 143
 143 122 122 122 122 122 122 122 89 89 89 89 89 89 89 89 220 35 35 35
 35 119 119 119 119 119 143 143 143 143 94 122 122 122 122 122 122 89 89 89
 89 89 89 89 89 220 35 35 35 35 119 119 119 119 119 143 203 198 198 94
 94 94 94 126 126 6 6 89 54 54 54 54 54 220 220 35 35 35 35 119
 119 119 119 119 143 198 198 198 94 94 94 94 180 6 6 6 6 54 54 54
 54 54 46 46 46 35 177 177 177 177 119 119 119 101 101 101 101 94 94 94
 180 180 6 6 6 6 54 54 54 54 71 46 46 46 177 177 177 177 177 177
 119 101 101 101 101 101 101 101 180 180 180 6 6 6 6 71 71 71 71 71
 71 46 46 177 177 177 177 177 177 177 101 101 101 101 101 101 101 180 180 180
 6 6 6 6 71 71 71 71 71 71 46 46 177 177 177 177 177 177 177 101
 101 101 101 101 101 101 229 229 229 6 6 6 6 71 71 71 71 71 71 71
 46 177 177 177 177 177 177 101 101 101 101 101 101 101 101 229 229 229 229 6
 6 71 71 71 71 71 71 71 71 160 160 160 160 160 77 77 19 19 19 98
 98 98 98 229 229 229 229 229 229 11 71 71 71 71 71 71 71 71 160 160
 160 160 160 77 77 19 19 19 19 98 98 98 170 229 229 229 229 11 11 11
 71 71 71 71 71 71 115 160 160 160 160 160 158 158 19 19 19 19 19 170
 170 170 170 229 229 229 11 11 11 11 71 71 71 71 115 115 160 160 160 160
 160 158 158 158 49 49 49 135 135 170 170 170 170 229 229 11 11 11 11 62
 62 62 160 160 160 160 160 160 160 160 158 158 158 158 49 49 135 135 135 170
 170 170 163 192 192 192 62 62 62 62 62 160 160 160 160 160 160 160 160 158
 158 158 158 49 49 49 135 135 135 163 163 163 192 192 192 192 62 62 62 202
 202 160 160 160 160 160 160 158 158 158 158 158 158 49 49 237 237 163 163 163
 163 163 192 192 192 192 62 202 202 202 202 104 104 104 104 104 158 158 158 158
 158 158 237 237 237 237 163 163 163 163 163 192 192 192 192 202 202 202 202 202
 104 104 104 104 104 158 158 158 158 158 158 237 237 237 237 163 163 163 163 163
 192 192 192 117 117 202 202 202 202 104 104 104 104 104 158 158 158 158 158 158
 237 237 237 237 163 163 163 163 163 192 192 117 117 117 117 202 202 202 104 104
 104 104 104 158 139 5 5 43 43 228 228 228 228 163 163 163 163 163 173 173
 173 117 117 117 117 117 235 104 104 104 104 31 31 139 139 139 139 228 228 228
 228 228 14 14 128 128 173 173 173 173 117 117 117 117 117 117 104 104 104 31
 31 31 139 139 139 139 228 228 228 228 228 14 14 14 128 173 173 173 173 117
 117 117 117 117 117 13 13 104 31 31 31 139 139 139 139 228 228 228 228 228
 14 14 14 14 173 173 173 4 4 72 72 72 72 72 13 13 13 141 141 139
 139 139 139 139 228 228 228 228 228 14 14 14 14 107 107 107 4 4 72 72
 72 72 72 13 13 13 13 141 139 139 139 139 139 42 228 228 228 228 14 14
 14 184 184 107 107 4 4 4 72 72 72 72 13 13 13 13 147 147 189 189
 189 189 42 42 42 228 228 14 14 184 184 184 184 107 4 4 4 72 72 72
 72 13 13 13 147 147 147 189 189 189 189 42 42 42 228 228 122 122 122 184
 184 184 184 4 4 89 89 89 89 89 13 13 147 147 147 147 189 189 189 189
 42 42 42 42 122 122 122 206 184 184 184 184 89 89 89 89 89 89 89 85
 85 147 147 147 147 119 119 119 119 42 42 42 42 122 122 122 206 206 184 184
 184 89 89 89 89 89 89 89 85 85 147 147 147 147 119 119 119 119 119 143
 143 143 122 122 122 122 206 206 184 89 89 89 89 89 89 89 89 85 85 35
 35 119 119 119 119 119 119 119 143 198 198 94 94 122 122 122 122 184 89 89
 89 89 89 89 89 89 85 35 35 35 119 119 119 119 119 119 119 198 198 198
 94 94 94 94 122 122 6 6 89 54 54 54 54 54 54 85 35 35 35 119
 119 119 119 119 119 119 198 198 198 94 94 94 94 94 6 6 6 6 54 54
 54 54 54 54 46 46 177 177 177 119 177 119 119 119 119 198 198 198 94 94
 94 94 180 6 6 6 6 54 54 54 54 71 71 46 46 177 177 177 177 177
 119 119 119 101 101 101 101 101 94 94 94 180 6 6 6 6 71 71 71 71
 71 71 71 46 177 177 177 177 177 177 119 119 101 101 101 101 101 101 180 180
 180 6 6 6 6 71 71 71 71 71 71 71 46 177 177 177 177 177 177 119
 101 101 101 101 101 101 101 229 229 229 6 6 6 6 71 71 71 71 71 71
 71 102 102 177 177 177 177 177 98 98 98 98 98 98 98 98 229 229 229 229
 6 6 71 71 71 71 71 71 71 102 102 102 102 102 102 177 19 19 19 19
 98 98 98 98 98 229 229 229 229 229 11 71 71 71 71 71 71 71 115 115
 115 115 115 115 19 19 19 19 19 19 98 98 98 98 229 229 229 229 11 11
 71 71 71 71 71 71 115 115 115 115 115 115 115 158 19 19 19 19 19 19
 98 98 98 170 229 229 229 11 62 62 62 62 62 71 115 115 115 115 115 115
 115 115 158 158 19 19 19 19 19 19 170 170 170 170 229 163 62 62 62 62
 62 62 62 115 115 115 115 115 115 115 115 158 158 158 158 19 19 19 135 135
 170 163 163 163 163 163 62 62 62 62 62 62 62 115 115 115 115 115 115 115
 158 158 158 158 158 49 49 135 135 163 163 163 163 163 163 149 149 62 62 62
 62 235 235 160 160 160 160 160 158 158 158 158 158 158 49 49 237 163 163 163
 163 163 163 163 149 149 149 62 62 235 235 235 104 104 104 104 104 158 158 158
 158 158 158 158 237 237 163 163 163 163 163 163 163 149 149 149 62 235 235 235
 235 104 104 104 104 104 158 158 158 158 158 158 158 237 237 163 163 163 163 163
 163 163 149 149 149 117 235 235 235 235 104 104 104 104 104 158 158 158 158 158
 158 100 237 237 163 163 163 163 163 163 163 149 149 117 117 117 235 235 235 104
 104 104 104 104 158 139 43 43 43 43 43 228 228 163 163 163 163 163 173 173
 173 173 173 150 150 150 235 156 156 104 104 31 31 31 139 139 139 43 43 228
 228 76 76 14 163 163 163 173 173 173 173 173 150 150 150 156 156 156 104 31
 31 31 31 139 139 139 43 43 76 76 76 76 14 14 14 128 173 173 173 173
 173 150 150 150 156 156 156 141 141 31 31 31 139 139 139 139 43 76 76 76
 76 14 14 14 14 173 173 173 173 173 72 72 72 72 156 13 13 13 141 141
 141 139 139 139 139 42 76 76 76 76 14 14 14 45 45 107 107 107 4 72
 72 72 72 72 13 13 13 13 141 141 139 139 139 42 42 42 76 76 76 14
 14 45 45 45 107 107 107 4 72 72 72 72 72 13 13 13 13 147 147 147
 189 189 42 42 42 42 230 230 230 14 184 184 184 184 107 107 4 72 72 72
 72 72 13 13 13 147 147 147 147 189 189 42 42 42 42 230 230 206 206 206
 184 184 184 184 107 89 89 89 89 89 85 85 13 147 147 147 147 147 189 189
 42 42 42 42 42 230 206 206 206 184 184 184 184 89 89 89 89 89 89 85
 85 85 147 147 147 147 119 119 119 119 42 42 42 42 206 206 206 206 206 184
 184 184 89 89 89 89 89 89 85 85 85 85 147 147 147 119 119 119 119 119
 42 42 198 206 206 206 206 206 206 184 89 89 89 89 89 89 89 85 85 85
 85 147 119 119 119 119 119 119 119 119 198 198 94 94 206 206 206 206 152 89
 89 89 89 89 89 89 85 85 85 85 119 119 119 119 119 119 119 119 198 198
 198 94 94 94 94 152 152 152 137 137 54 54 54 54 54 85 85 85 85 119
 119 119 119 119 119 119 119 198 198 198 94 94 94 94 152 152 6 137 137 137
 54 54 54 54 54 85 85 177 177 119 119 119 119 119 119 198 198 198 198 94
 94 94 94 94 6 6 6 137 137 17 17 17 71 71 71 177 177 177 177 177
 177 119 119 119 130 130 130 130 130 94 94 94 94 6 6 6 6 17 17 17
 71 71 71 71 177 177 177 177 177 177 177 119 119 130 130 130 130 130 130 94
 94 144 6 6 6 6 71 71 71 71 71 71 71 102 102 177 177 177 177 177
 119 98 98 98 98 98 98 98 98 144 144 144 6 6 6 71 71 71 71 71
 71 102 102 102 102 102 102 177 177 98 98 98 98 98 98 98 98 98 229 144
 144 6 6 71 71 71 71 71 71 71 102 102 102 102 102 102 177 19 19 19
 19 98 98 98 98 98 98 229 229 229 229 62 71 71 71 71 71 71 102 102
 102 102 102 102 102 19 19 19 19 19 19 98 98 98 98 98 229 229 148 62
 62 62 62 62 62 62 71 115 115 115 115 115 115 115 19 19 19 19 19 19
 19 98 98 98 98 229 229 148 62 62 62 62 62 62 62 62 115 115 115 115
 115 115 115 158 158 19 19 19 19 19 19 98 98 98 163 163 62 62 62 62
 62 62 62 62 62 115 115 115 115 115 115 115 158 158 158 19 19 19 19 19
 135 163 163 163 163 163 62 62 62 62 62 62 62 62 115 115 115 115 115 115
 115 158 158 158 158 158 19 19 19 142 163 163 163 163 163 149 149 149 62 62
 62 62 62 235 115 115 115 115 115 115 158 158 158 158 158 100 100 142 142 163
 163 163 163 163 149 149 149 149 62 62 235 235 235 104 104 104 104 104 158 158
 158 158 158 100 100 100 142 142 163 163 163 163 163 149 149 149 149 62 235 235
 235 235 235 104 104 104 104 158 158 158 158 158 100 100 100 142 142 163 163 163
 163 163 106 106 149 149 62 235 235 235 235 235 104 104 104 104 158 158 158 158
 158 100 100 100 100 163 163 163 163 163 163 106 106 106 106 117 235 235 235 235
 235 104 104 104 104 104 43 43 43 43 43 100 100 142 142 142 163 163 163 173
 173 173 173 106 150 150 156 156 156 156 104 104 31 31 31 139 139 43 43 43
 43 76 76 76 163 163 163 163 173 173 173 173 173 150 150 156 156 156 156 156
 141 31 31 31 139 139 43 43 43 43 76 76 76 76 14 14 163 173 173 173
 173 173 150 150 156 156 156 156 141 141 141 141 141 139 139 139 43 43 76 76
 76 76 76 14 45 45 45 173 173 173 173 72 72 156 156 156 156 13 141 141
 141 141 139 139 139 139 42 42 76 76 76 76 14 45 45 45 45 107 107 107
 72 72 72 72 156 13 13 13 141 141 141 141 139 139 42 42 42 42 76 76
 76 45 45 45 45 45 107 107 107 72 72 72 72 72 13 13 13 13 141 141
 147 189 42 42 42 42 42 230 230 230 230 45 45 45 45 107 107 107 72 72
 72 72 85 85 13 13 147 147 147 147 189 42 42 42 42 42 230 230 230 206
 184 184 184 184 45 107 89 89 89 89 85 85 85 85 147 147 147 147 147 119
 119 42 42 42 42 230 230 206 206 206 184 184 184 184 89 89 89 89 89 85
 85 85 85 85 147 147 147 119 119 119 119 42 42 42 42 230 206 206 206 206
 184 184 184 89 89 89 89 89 85 85 85 85 85 147 147 147 119 119 119 119
 42 42 42 42 94 206 206 206 206 152 152 89 89 89 89 89 89 85 85 85
 85 85 85 119 119 119 119 119 119 119 42 198 198 94 94 152 152 152 152 152
 137 137 137 89 89 89 85 85 85 85 85 85 119 119 119 119 119 119 119 198
 198 198 94 94 94 152 152 152 152 137 137 137 137 17 17 54 85 85 85 85
 85 119 119 119 119 119 119 119 198 198 198 94 94 94 94 152 152 137 137 137
 137 17 17 17 17 17 85 85 23 177 119 119 119 119 119 119 130 130 130 130
 130 94 94 94 152 152 137 137 137 137 17 17 17 17 17 23 23 23 177 177
 177 119 119 119 119 130 130 130 130 130 130 94 94 144 144 137 137 137 17 17
 17 17 17 17 23 102 177 177 177 177 177 119 119 130 130 130 130 130 130 130
 94 144 144 144 144 6 137 17 17 17 17 17 71 102 102 102 102 102 102 177
 119 119 98 98 98 98 98 98 98 98 144 144 144 144 144 17 17 17 17 17
 71 102 102 102 102 102 102 102 177 119 98 98 98 98 98 98 98 98 98 144
 144 144 144 144 123 71 71 71 71 71 102 102 102 102 102 102 102 19 19 19
 19 19 98 98 98 98 98 98 188 148 144 144 62 62 62 71 71 71 71 102
 102 102 102 102 102 102 19 19 19 19 19 19 98 98 98 98 98 188 148 148
 62 62 62 62 62 62 62 62 102 102 102 102 102 102 102 19 19 19 19 19
 19 19 168 168 168 168 188 148 148 62 62 62 62 62 62 62 62 115 115 115
 115 115 115 115 158 19 19 19 19 19 19 168 168 168 188 148 148 148 62 62
 62 62 62 62 62 62 115 115 115 115 115 115 115 158 158 19 19 19 19 19
 168 168 142 163 163 163 148 62 62 62 62 62 62 62 62 115 115 115 115 115
 115 115 158 158 158 158 19 19 19 168 142 142 163 163 163 163 149 149 62 62
 62 62 62 103 103 103 115 115 115 115 115 158 158 158 158 100 100 100 142 142
 142 163 163 163 163 106 149 149 149 62 62 62 103 103 103 103 104 104 104 16
 158 158 158 100 100 100 100 142 142 142 163 163 163 163 106 106 149 149 62 235
 235 235 235 235 104 104 104 104 16 158 158 158 100 100 100 100 142 142 142 163
 163 163 163 106 106 106 106 106 235 235 235 235 235 104 104 104 104 16 16 158
 158 43 100 100 100 142 142 142 163 163 163 163 106 106 106 106 106 235 235 235
 235 235 104 104 104 104 16 43 43 43 43 43 100 100 142 142 142 142 163 163
 173 173 106 106 106 150 156 156 156 156 156 156 141 141 141 31 139 43 43 43
 43 43 76 142 142 142 142 163 163 173 173 173 173 173 150 156 156 156 156 156
 141 141 141 141 141 141 43 43 43 43 43 76 76 76 76 45 45 173 173 173
 173 173 173 150 156 156 156 156 156 141 141 141 141 141 141 139 43 43 43 43
 76 76 76 76 45 45 45 45 45 173 173 173 97 156 156 156 156 156 141 141
 141 141 141 141 139 139 42 42 42 42 76 76 76 45 45 45 45 45 45 45
 97 97 97 97 156 156 13 13 141 141 141 141 141 139 42 42 42 42 42 42
 230 230 45 45 45 45 45 45 45 97 97 97 97 97 97 13 13 13 141 141
 141 147 42 42 42 42 42 42 230 230 230 45 45 45 45 45 45 45 97 97
 97 97 97 85 85 13 13 147 147 147 147 147 42 42 42 42 42 230 230 230
 206 45 45 45 45 45 45 97 97 97 97 85 85 85 85 85 147 147 147 147
 119 42 42 42 42 42 230 230 230 206 206 206 207 207 207 89 89 89 89 85
 85 85 85 85 85 147 147 147 119 119 119 42 42 42 42 42 230 230 206 206
 207 207 207 207 89 89 89 89 85 85 85 85 85 85 85 147 147 119 119 119
 119 42 42 42 42 230 152 152 152 152 152 152 152 137 89 89 89 85 85 85
 85 85 85 85 147 119 119 119 119 119 119 42 42 198 94 94 152 152 152 152
 152 137 137 137 89 89 85 85 85 85 85 85 85 119 119 119 119 119 119 119
 198 198 198 94 94 152 152 152 152 152 137 137 137 137 17 17 85 85 85 85
 85 85 119 119 119 119 119 119 119 130 130 130 94 94 94 152 152 152 137 137
 137 137 137 17 17 17 85 23 23 23 23 119 119 119 119 119 119 130 130 130
 130 130 94 94 94 152 152 137 137 137 137 17 17 17 17 17 23 23 23 23
 23 177 119 119 119 130 130 130 130 130 130 130 94 144 144 144 144 137 137 137
 17 17 17 17 17 23 23 23 23 102 102 55 55 55 130 130 130 130 130 130
 130 130 144 144 144 144 144 137 17 17 17 17 17 17 102 102 102 102 102 102
 55 55 55 130 130 130 130 130 130 130 144 144 144 144 144 144 123 17 17 17
 17 17 102 102 102 102 102 102 102 55 55 55 98 98 98 98 98 98 98 144
 144 144 144 144 144 123 123 17 17 17 71 102 102 102 102 102 102 102 19 19
 19 19 19 98 98 98 98 98 188 188 148 144 144 144 62 62 62 62 62 102
 102 102 102 102 102 102 102 19 19 19 19 19 19 168 168 168 168 188 188 148
 148 148 62 62 62 62 62 62 62 102 102 102 102 102 102 102 19 19 19 19
 19 19 168 168 168 168 188 188 148 148 148 62 62 62 62 62 62 62 102 102
 102 102 102 102 102 16 19 19 19 19 19 168 168 168 168 188 148 148 148 148
 62 62 62 62 62 62 62 115 115 115 115 115 115 115 16 16 19 19 19 19
 168 168 168 168 148 148 148 148 148 62 62 62 62 62 62 62 103 115 115 115
 115 115 115 16 16 158 100 100 100 168 168 142 142 142 163 163 148 148 62 62
 62 62 62 62 103 103 103 103 115 115 115 16 16 16 158 100 100 100 100 142
 142 142 142 163 163 163 106 106 106 62 62 62 103 103 103 103 103 103 104 16
 16 16 16 16 100 100 100 100 142 142 142 142 163 163 106 106 106 106 106 62
 62 103 103 103 103 103 104 104 16 16 16 16 16 100 100 100 100 142 142 142
 142 163 163 106 106 106 106 106 106 235 235 235 235 235 104 104 104 16 16 16
 16 43 43 100 100 100 142 142 142 142 163 163 106 106 106 106 106 106 156 156
 156 156 156 156 104 104 16 16 43 43 43 43 43 100 100 142 142 142 142 163
 163 106 106 106 106 106 156 156 156 156 156 156 156 141 141 141 141 43 43 43
 43 43 43 100 142 142 142 142 163 163 173 173 173 173 173 156 156 156 156 156
 156 156 141 141 141 141 141 43 43 43 43 43 76 76 76 142 142 45 45 173
 173 173 173 173 156 156 156 156 156 156 141 141 141 141 141 141 43 43 43 43
 43 76 76 76 76 45 45 45 45 45 45 138 97 97 97 156 156 156 156 156
 141 141 141 141 141 139 43 42 42 42 42 42 76 76 45 45 45 45 45 45
 45 97 97 97 97 97 156 156 13 141 141 141 141 141 141 42 42 42 42 42
 42 230 45 45 45 45 45 45 45 45 97 97 97 97 97 97 85 37 37 141
 141 141 141 42 42 42 42 42 42 230 230 230 45 45 45 45 45 45 45 97
 97 97 97 97 85 85 37 37 37 147 147 147 42 42 42 42 42 42 230 230
 230 230 45 45 45 45 45 45 97 97 97 97 85 85 85 85 37 37 147 147
 147 119 42 42 42 42 42 230 230 230 206 207 207 207 207 207 207 97 97 89
 85 85 85 85 85 85 85 147 147 119 119 119 42 42 42 42 42 230 230 152
 152 207 207 207 207 207 89 89 89 85 85 85 85 85 85 85 147 147 119 119
 119 119 42 42 42 42 47 152 152 152 152 207 207 207 207 137 89 89 85 85
 85 85 85 85 85 147 119 119 119 119 119 111 42 42 47 47 47 152 152 152
 152 152 137 137 137 137 17 85 85 85 85 85 85 85 119 119 119 119 119 119
 111 111 47 47 47 47 47 152 152 152 152 137 137 137 137 17 96 96 23 23
 23 23 23 23 119 119 119 119 111 111 130 130 130 47 47 47 47 152 152 137
 137 137 137 137 17 96 96 23 23 23 23 23 23 119 55 55 55 55 130 130
 130 130 130 47 47 47 152 152 137 137 137 137 17 17 17 17 23 23 23 23
 23 23 55 55 55 55 55 130 130 130 130 130 130 47 144 144 144 144 137 137
 137 17 17 17 17 23 23 23 23 155 155 55 55 55 55 55 130 130 130 130
 130 130 144 144 144 144 144 144 123 17 17 17 17 17 23 23 155 155 155 155
 155 55 55 55 55 130 130 130 130 130 130 144 144 144 144 144 144 123 123 17
 17 17 17 102 102 155 155 155 102 102 55 55 55 154 98 98 98 98 98 98
 144 144 144 144 144 123 123 123 123 17 17 17 102 102 102 102 102 102 102 55
 55 154 154 19 98 168 168 168 188 188 188 148 144 144 123 123 123 62 62 62
 199 102 102 102 102 102 102 102 154 154 19 19 19 168 168 168 168 188 188 188
 148 148 148 148 62 62 62 62 62 199 102 102 102 102 102 102 102 16 19 19
 19 19 168 168 168 168 188 188 188 148 148 148 148 62 62 62 62 62 199 174
 102 102 102 102 102 102 16 16 19 19 19 168 168 168 168 188 188 188 148 148
 148 148 62 62 62 62 62 62 174 174 174 102 102 102 102 16 16 26 26 19
 168 168 168 168 188 148 148 148 148 148 62 62 62 62 62 62 103 174 174 174
 174 115 115 16 16 16 26 26 100 100 100 168 142 142 148 148 148 148 148 62
 62 62 62 62 103 103 103 174 174 174 174 16 16 16 16 16 100 100 100 100
 142 142 142 142 142 34 106 106 106 106 62 62 62 103 103 103 103 174 174 174
 16 16 16 16 16 100 100 100 100 142 142 142 142 142 34 106 106 106 106 106
 62 62 103 103 103 103 174 174 16 16 16 16 16 16 100 100 100 100 142 142
 142 142 142 34 106 106 106 106 106 106 222 222 222 222 222 174 16 16 16 16
 16 16 43 43 100 100 100 142 142 142 142 142 34 106 106 106 106 106 106 156
 156 156 156 156 156 104 16 16 16 16 164 164 164 164 164 100 142 142 142 34
 34 34 34 129 129 129 129 156 156 156 156 156 156 156 141 141 16 16 16 164
 164 164 164 164 100 142 142 142 34 34 34 34 138 138 138 138 156 156 156 156
 156 156 156 141 141 141 141 141 164 164 164 164 164 164 76 76 142 34 45 45
 138 138 138 138 138 97 156 156 156 156 156 156 141 141 141 141 141 141 164 164
 164 164 76 76 76 243 45 45 45 45 138 138 138 97 97 97 97 156 156 156
 141 141 141 141 141 141 141 157 42 42 42 42 42 226 226 45 45 45 45 45
 138 138 97 97 97 97 97 156 37 37 141 141 141 141 141 157 157 42 42 42
 42 42 226 226 45 45 45 45 45 45 138 97 97 97 97 97 97 37 37 37
 37 141 141 141 157 42 42 42 42 42 42 226 226 226 45 45 45 45 45 97
 97 97 97 97 97 37 37 37 37 37 37 37 147 42 42 42 42 42 42 230
 226 226 226 45 207 207 207 207 97 97 97 97 97 97 85 37 37 37 37 37
 37 147 119 42 42 42 42 42 230 226 226 226 207 207 207 207 207 207 97 97
 97 97 85 85 85 85 37 37 37 37 119 119 119 42 42 42 42 42 226 226
 226 207 207 207 207 207 207 207 169 169 85 85 85 85 85 85 85 37 37 119
 119 111 111 111 42 42 42 47 152 152 152 207 207 207 207 207 137 169 169 85
 85 85 85 85 85 85 37 119 119 111 111 111 111 111 183 47 47 47 152 152
 152 152 207 137 137 137 137 96 96 85 85 85 85 85 23 23 119 111 111 111
 111 111 111 47 47 47 47 47 152 152 152 152 137 137 137 137 96 96 96 23
 23 23 23 23 23 119 55 55 111 111 111 111 130 47 47 47 47 47 152 152
 137 137 137 137 137 96 96 96 23 23 23 23 23 23 55 55 55 55 55 111