# vtk DataFile Version 2.0
Data set from ImportExport Version 6.5.171.b0b162591
ASCII

DATASET RECTILINEAR_GRID
DIMENSIONS 30 30 30
X_COORDINATES 30 float
-1.250000 1.250000 3.750000 6.250000 8.750000 11.250000 13.750000 16.250000 18.750000 21.250000 23.750000 26.250000 28.750000 31.250000 33.750000 36.250000 38.750000 41.250000 43.750000 46.250000 48.750000 
51.250000 53.750000 56.250000 58.750000 61.250000 63.750000 66.250000 68.750000 71.250000 
Y_COORDINATES 30 float
-1.250000 1.250000 3.750000 6.250000 8.750000 11.250000 13.750000 16.250000 18.750000 21.250000 23.750000 26.250000 28.750000 31.250000 33.750000 36.250000 38.750000 41.250000 43.750000 46.250000 48.750000 
51.250000 53.750000 56.250000 58.750000 61.250000 63.750000 66.250000 68.750000 71.250000 
Z_COORDINATES 30 float
-1.250000 1.250000 3.750000 6.250000 8.750000 11.250000 13.750000 16.250000 18.750000 21.250000 23.750000 26.250000 28.750000 31.250000 33.750000 36.250000 38.750000 41.250000 43.750000 46.250000 48.750000 
51.250000 53.750000 56.250000 58.750000 61.250000 63.750000 66.250000 68.750000 71.250000 
CELL_DATA 24389
SCALARS FeatureIds int 1
LOOKUP_TABLE default
 234 234 91 91 91 5 5 5 5 186 186 186 18 18 18 18 235 235 235 50
 50 50 50 50 143 143 143 143 143 234 91 91 91 91 5 5 5 5 186 186
 186 18 18 18 235 235 235 235 235 235 50 50 223 223 223 223 223 143 87 91
 91 91 91 5 5 5 5 186 186 186 18 18 18 235 235 235 235 235 235 235
 223 223 223 223 223 223 87 87 87 87 91 91 5 5 5 5 186 186 205 205
 205 18 235 235 235 235 235 235 235 223 223 223 223 223 87 87 87 87 87 87
 91 5 5 5 5 21 205 205 205 205 47 47 47 235 235 235 235 235 223 223
 134 223 223 87 87 87 87 87 87 87 5 5 5 21 21 205 205 205 205 47
 47 47 47 36 36 144 30 30 134 134 134 87 87 87 87 87 87 87 87 214
 214 214 21 21 205 205 205 205 47 47 47 55 55 55 144 30 30 30 30 30
 126 87 87 87 87 87 87 87 214 214 214 214 214 205 205 205 175 175 175 55
 55 55 55 30 30 30 30 126 126 126 126 87 87 87 87 87 214 214 214 214
 214 214 214 205 175 175 175 175 55 55 55 55 55 30 30 30 126 126 126 126
 87 87 87 87 214 214 214 214 214 214 214 214 214 175 175 175 175 175 55 55
 55 55 30 170 126 126 126 126 126 126 197 197 197 197 214 214 214 214 214 214
 214 49 175 175 175 175 55 55 55 55 55 77 170 126 126 126 126 126 126 197
 197 197 197 214 214 214 214 214 49 49 49 49 49 175 175 55 55 55 55 77
 77 126 126 126 126 126 126 126 197 197 197 197 207 214 214 214 49 49 49 49
 49 49 49 181 181 181 181 181 211 211 83 83 126 126 126 126 126 197 197 197
 207 207 207 207 207 49 49 49 49 49 49 49 181 181 181 181 181 211 211 83
 83 83 83 83 48 48 169 169 207 207 207 207 207 207 49 49 49 49 49 49
 49 181 181 181 181 181 211 211 83 83 83 83 83 48 48 169 169 207 207 207
 207 207 207 207 49 49 49 49 49 49 181 181 181 181 181 211 211 211 83 83
 83 83 9 9 9 169 207 207 207 207 207 207 207 49 49 49 49 49 181 181
 181 181 181 181 211 211 211 83 83 83 9 9 9 9 9 207 207 207 207 4
 4 4 4 49 228 228 49 181 181 181 181 181 181 211 211 211 83 83 9 9
 9 9 9 9 207 207 207 4 4 4 4 4 228 228 228 45 45 45 139 139
 139 181 211 211 211 83 83 9 9 9 9 9 9 9 207 207 4 4 4 4
 228 228 228 228 228 45 45 45 139 139 181 211 211 132 132 132 132 9 9 9
 9 9 9 69 69 206 206 206 228 228 228 228 228 228 45 45 45 45 139 113
 113 132 132 132 132 132 132 9 9 9 9 69 69 69 69 206 215 228 228 228
 228 228 228 195 195 45 45 201 113 113 113 132 132 132 132 132 9 9 69 69
 69 69 69 69 215 215 215 228 228 228 195 195 195 195 195 195 113 113 113 113
 113 132 132 132 132 132 9 69 69 69 69 69 69 215 215 215 215 195 195 195
 195 195 195 195 195 50 113 113 113 113 132 132 132 132 132 9 69 69 69 69
 69 69 215 215 215 215 131 195 195 195 195 195 195 50 50 50 50 113 113 113
 132 132 132 132 234 234 234 234 69 69 69 215 215 215 131 131 18 18 18 18
 18 50 50 50 50 50 50 50 50 26 26 26 143 234 234 234 234 234 69 69
 215 215 131 131 18 18 18 18 18 18 18 50 50 50 50 50 50 50 26 26
 26 143 234 234 234 234 234 234 5 5 5 5 186 18 18 18 18 18 18 18
 50 50 50 50 50 50 50 26 26 26 143 234 234 234 234 91 91 5 5 5
 5 186 186 18 18 18 18 18 18 50 50 50 50 50 50 50 26 26 26 143
 234 234 234 234 91 5 5 5 5 5 186 186 186 18 18 18 18 18 235 50
 50 50 50 50 223 143 143 143 143 143 234 91 91 91 5 5 5 5 5 186
 186 186 18 18 18 18 18 235 235 235 235 50 223 223 223 223 223 223 143 87
 87 91 91 5 5 5 5 5 186 186 186 18 18 18 18 235 235 235 235 235
 235 223 223 223 223 223 223 223 87 87 87 87 5 5 5 5 5 186 186 205
 205 205 205 36 36 36 36 235 235 223 223 223 223 223 223 223 87 87 87 87
 87 87 5 5 5 5 205 205 205 205 205 205 36 36 36 36 36 144 144 223
 223 223 223 223 223 87 87 70 87 87 87 87 5 5 21 205 205 205 205 205
 47 36 36 36 36 36 144 144 144 223 223 223 223 87 87 87 87 87 87 87
 87 214 214 214 205 205 205 205 205 47 36 36 36 36 144 144 144 144 144 30
 223 223 87 87 87 87 87 87 87 214 214 214 214 214 205 205 205 242 242 175
 55 55 55 144 144 144 144 144 126 126 126 87 87 87 87 87 87 214 214 214
 214 214 214 214 242 242 242 242 175 55 55 55 77 77 77 77 77 126 126 126
 126 87 197 197 197 214 214 214 214 214 214 214 214 242 242 242 242 175 175 55
 55 77 77 77 77 77 126 126 126 126 126 197 197 197 197 214 214 214 214 214
 214 214 242 242 242 242 175 55 55 55 77 77 77 77 77 126 126 126 126 197
 197 197 197 197 116 116 214 214 214 49 49 49 49 242 242 175 55 55 55 168
 77 77 77 126 126 126 126 126 197 197 197 197 197 116 116 116 214 49 49 49
 49 49 49 49 181 181 181 181 168 168 168 83 83 83 126 126 48 197 197 197
 197 207 207 207 207 207 49 49 49 49 49 49 49 181 181 181 181 168 211 211
 83 83 83 83 48 48 48 169 169 169 207 207 207 207 207 49 49 49 49 49
 49 49 181 181 181 181 181 211 211 83 83 83 83 48 48 48 169 169 169 207
 207 207 207 207 207 49 49 49 49 49 49 181 181 65 181 181 211 211 211 83
 83 83 48 48 48 169 169 169 207 207 207 207 207 207 49 49 49 49 49 181
 181 181 181 181 181 211 211 83 83 83 83 48 48 48 169 169 169 207 207 207
 207 207 206 206 228 228 228 228 181 181 181 181 181 181 211 211 83 83 83 83
 9 9 9 9 9 169 207 207 206 206 206 206 206 228 228 228 228 45 181 181
 181 181 181 211 211 83 83 83 9 9 9 9 9 9 9 207 206 206 206 206
 206 228 228 228 228 228 228 45 45 181 181 201 201 211 83 83 132 132 9 9
 9 9 9 138 69 206 206 206 206 206 228 228 228 228 228 228 45 45 201 201
 201 201 132 132 132 132 132 132 9 9 9 138 69 69 69 206 206 206 206 228
 228 228 228 228 195 195 195 201 201 201 113 113 132 132 132 132 132 9 9 138
 69 69 69 69 69 215 215 215 228 228 228 195 195 195 195 195 195 201 113 113
 113 113 132 132 132 132 132 9 69 69 69 69 69 69 215 215 215 215 195 195
 195 195 195 195 195 195 50 113 113 113 113 208 132 132 132 132 143 234 69 52
 52 52 52 215 215 215 215 195 195 195 195 195 195 195 50 50 50 50 113 113
 208 208 132 143 143 143 234 234 234 52 52 52 215 215 215 215 18 18 18 18
 18 18 18 50 50 50 50 50 50 208 26 143 143 143 143 234 234 234 234 52
 52 215 215 215 215 18 18 18 18 18 18 18 50 50 50 50 50 50 50 26
 143 143 143 143 234 234 234 234 52 5 5 5 5 186 18 18 18 18 18 18
 18 50 50 50 50 50 50 50 143 143 143 143 143 234 234 234 234 91 5 5
 5 5 186 186 18 18 18 18 18 18 50 50 50 50 50 50 50 143 143 143
 143 143 234 234 234 91 5 5 5 5 5 186 186 18 18 18 18 18 18 235
 50 50 50 212 223 223 223 143 143 143 143 234 234 91 91 5 5 5 5 5
 186 186 186 18 18 18 18 18 235 235 90 90 90 223 223 223 223 223 223 143
 182 182 182 91 5 5 5 5 186 186 186 186 18 18 18 18 36 36 36 90
 90 90 223 223 223 223 223 223 223 182 182 182 87 5 5 5 5 186 186 186
 205 205 205 36 36 36 36 36 90 90 223 223 223 223 223 223 223 87 182 182
 182 87 87 5 5 5 5 186 205 205 205 205 36 36 36 36 36 36 144 144
 223 223 223 223 223 223 87 182 182 87 87 87 87 5 5 5 205 205 205 205
 205 205 36 36 36 36 36 144 144 144 223 223 223 223 223 87 87 87 87 87
 87 214 214 214 214 205 205 205 205 205 36 36 36 36 36 144 144 144 144 144
 223 223 223 223 87 87 87 87 87 87 214 214 214 214 214 205 205 242 242 242
 242 36 36 36 144 144 144 144 144 144 223 223 87 87 87 87 87 87 214 214
 214 214 214 214 214 242 242 242 242 242 242 55 55 77 77 77 77 77 126 126
 126 126 87 197 197 197 197 214 214 214 214 214 214 214 242 242 242 242 242 242
 55 55 77 77 77 77 77 126 126 126 126 197 197 197 197 197 116 116 214 214
 214 214 214 242 242 242 242 242 242 55 55 77 77 77 77 77 126 126 126 197
 197 197 197 197 197 116 116 116 214 214 49 49 49 242 242 242 242 242 168 168
 168 77 77 77 77 126 126 126 197 197 197 197 197 197 116 116 116 214 49 49
 49 49 49 49 49 181 181 181 168 168 168 168 77 83 83 126 48 197 197 197
 197 197 207 207 207 207 207 49 49 49 49 49 49 49 181 181 181 168 168 168
 211 83 83 83 48 48 48 48 169 169 169 207 207 207 207 207 49 49 49 49
 49 49 49 181 181 181 181 168 211 211 83 83 83 48 48 48 48 169 169 169
 207 207 207 207 207 207 49 49 49 49 49 49 181 181 181 181 211 211 211 83
 83 83 83 48 48 48 169 169 169 207 207 207 207 207 207 49 49 49 49 49
 181 181 181 181 181 181 211 211 83 83 83 83 48 48 48 169 169 169 207 207
 207 207 206 206 206 228 228 228 228 181 181 181 181 181 181 211 211 83 83 83
 83 48 48 48 169 169 169 207 207 206 206 206 206 206 228 228 228 228 201 201
 201 201 201 201 211 211 83 83 83 83 9 9 9 138 138 138 206 206 206 206
 206 206 206 228 228 228 228 228 201 201 201 201 201 201 137 137 137 137 137 9
 9 9 138 138 138 138 206 206 206 206 206 206 228 228 228 228 228 201 201 201
 201 201 201 137 137 137 137 137 9 9 9 138 138 138 138 206 206 206 206 206
 228 228 228 228 228 195 195 201 201 201 201 201 137 137 137 137 137 132 9 138
 138 138 138 52 29 206 206 206 206 228 228 228 228 195 195 195 195 201 201 201
 113 208 208 208 208 132 132 138 138 138 138 52 52 52 29 215 215 215 215 228
 195 195 195 195 195 195 195 201 201 208 208 208 208 208 208 208 143 138 143 52
 52 52 52 52 215 215 215 215 195 195 195 195 195 195 195 195 50 50 50 208
 208 208 208 208 143 143 143 143 234 52 52 52 52 215 215 215 215 18 18 18
 18 18 18 18 50 50 50 50 212 208 208 208 143 143 143 143 234 234 234 52
 52 136 136 215 215 215 18 18 18 18 18 18 18 50 50 50 212 212 212 212
 143 143 143 143 143 234 234 234 234 136 136 136 5 5 186 18 18 18 18 18
 18 18 50 50 212 212 212 212 212 143 143 143 143 143 234 234 234 234 136 136
 5 5 5 186 186 18 18 18 18 18 18 50 50 50 212 212 212 143 143 143
 143 143 143 143 234 234 136 136 136 5 5 5 186 186 18 18 18 18 18 18
 90 90 90 212 212 212 223 223 143 143 143 143 143 182 182 136 5 5 5 5
 186 186 186 186 18 18 18 18 18 90 90 90 90 90 223 223 223 223 223 223
 223 182 182 182 91 5 5 5 5 186 186 186 186 18 18 18 18 90 90 90
 90 90 90 223 223 223 223 223 223 223 182 182 182 87 5 5 5 5 186 186
 186 205 60 60 60 36 36 36 90 90 90 90 223 223 223 66 223 223 223 182
 182 182 87 87 5 5 5 5 186 205 205 205 60 60 36 36 36 36 90 90
 90 223 223 223 223 223 223 182 182 182 182 87 87 87 5 5 5 205 205 205
 205 60 60 36 36 36 36 36 144 144 144 73 223 223 223 223 182 182 87 87
 87 87 214 214 214 214 110 205 205 205 60 60 36 36 36 36 144 144 144 144
 144 223 223 223 223 87 87 87 87 87 87 214 214 214 214 214 23 242 242 242
 242 242 36 36 36 144 144 144 144 144 223 223 223 223 87 197 197 197 197 214
 214 214 214 214 214 23 242 242 242 242 242 242 36 36 77 77 77 77 77 77
 126 126 126 197 197 197 197 197 116 116 214 214 214 214 23 242 242 242 242 242
 242 242 77 77 77 77 77 77 77 148 148 197 197 197 197 197 197 116 116 116
 214 214 214 23 242 242 242 242 242 242 100 77 77 77 77 77 77 77 148 148
 197 197 197 197 197 197 116 116 116 116 214 49 49 242 242 242 242 242 242 168
 168 168 77 77 77 77 77 148 173 173 197 197 197 197 197 116 116 116 116 214
 49 49 49 49 49 242 242 181 168 168 168 168 168 77 77 77 173 173 173 197
 197 197 197 197 116 116 116 116 49 49 49 49 49 49 49 181 181 181 168 168
 168 168 83 83 83 48 48 48 48 169 169 169 169 207 207 207 207 49 49 49
 49 49 49 49 181 181 181 168 168 168 211 83 83 83 48 48 48 48 169 169
 169 169 207 207 207 207 207 49 49 49 49 49 181 181 181 181 181 168 211 211
 83 83 83 48 48 48 48 169 169 169 169 207 207 207 207 206 206 49 49 49
 49 181 181 181 181 181 181 211 211 83 83 83 48 48 48 48 169 169 169 169
 207 207 206 206 206 206 206 228 228 201 201 201 201 201 201 201 211 211 83 83
 83 48 48 48 48 169 169 169 169 206 206 206 206 206 206 228 228 228 201 201
 201 201 201 201 201 201 211 83 83 83 48 48 48 48 138 138 138 138 206 206
 206 206 206 206 228 228 228 228 201 201 201 201 201 201 201 137 137 137 137 137
 137 9 138 138 138 138 138 206 206 206 206 206 206 228 228 228 228 228 201 201
 201 201 201 201 137 137 137 137 137 137 138 138 138 138 138 138 29 206 206 206
 206 206 228 228 228 228 228 201 201 201 201 201 201 137 137 137 137 137 137 138
 138 138 138 138 138 29 29 29 206 206 206 228 228 228 195 195 195 201 201 201
 201 201 208 208 208 208 208 208 138 138 138 138 138 52 29 29 29 29 215 215
 228 195 195 195 195 195 195 201 201 201 208 208 208 208 208 208 208 138 138 138
 52 52 52 52 29 29 29 215 215 195 195 195 195 195 195 195 2 201 208 208
 208 208 208 208 208 208 143 143 143 52 52 52 52 136 136 136 215 215 18 18
 18 18 18 18 18 2 212 212 212 212 208 208 208 143 143 143 143 143 234 52
 52 52 136 136 136 136 18 18 18 18 18 18 18 18 2 212 212 212 212 212
 212 143 143 143 143 143 143 234 234 136 136 136 136 136 5 18 18 18 18 18
 18 18 18 2 212 212 212 212 212 212 143 143 143 143 143 143 234 234 136 136
 136 136 5 5 186 18 18 18 18 18 18 18 2 212 212 212 212 212 212 143
 143 143 143 143 143 234 136 136 136 136 136 136 5 186 186 18 18 18 18 2
 2 2 212 212 212 212 212 212 223 143 143 143 143 143 182 136 136 136 136 136
 5 5 186 186 186 18 18 18 2 2 90 90 90 90 90 223 223 223 223 223
 223 143 182 182 99 99 136 5 5 5 186 186 186 186 60 60 60 60 90 90
 90 90 90 90 223 223 223 223 223 223 223 182 182 182 99 99 5 5 5 186
 186 110 110 60 60 60 36 36 90 90 90 90 90 223 223 223 223 223 223 223
 182 182 182 238 238 238 5 5 110 110 110 110 60 60 60 36 36 36 90 90
 90 90 73 73 223 223 223 223 223 182 182 182 238 238 238 238 110 110 110 110
 110 60 60 60 36 36 36 36 90 90 144 73 73 73 223 223 223 182 182 87
 87 238 238 238 214 214 110 110 110 110 60 60 60 36 36 36 36 135 144 144
 144 73 73 223 223 223 87 87 87 87 238 238 214 214 214 214 23 23 23 242
 242 242 242 36 36 135 135 144 144 144 144 73 223 223 223 87 197 197 197 197
 116 214 214 214 214 23 23 23 23 242 242 242 242 36 135 135 77 77 77 77
 77 148 148 148 197 197 197 197 197 116 116 116 214 214 23 23 23 242 242 242
 242 100 100 135 77 77 77 77 77 77 148 148 148 197 197 197 197 197 116 116
 116 116 214 23 23 23 242 242 242 100 100 100 100 77 77 77 77 77 77 148
 148 148 197 197 197 197 197 116 116 116 116 214 23 23 23 242 242 242 100 100
 100 168 168 77 77 77 77 148 148 148 173 197 197 197 197 197 116 116 116 116
 214 49 49 49 49 49 242 100 100 168 168 168 168 168 77 77 173 173 173 173
 173 197 197 197 197 116 116 116 79 79 49 49 49 49 49 49 181 181 168 168
 168 168 168 83 83 173 173 173 173 173 169 169 169 169 207 207 79 79 79 49
 49 49 49 49 49 181 181 181 168 168 168 168 83 83 83 48 48 48 48 169
 169 169 169 207 207 79 79 79 79 49 49 49 49 38 181 181 181 168 168 168
 211 83 83 83 48 48 48 48 169 169 169 169 207 207 207 79 79 79 49 49
 49 201 201 201 201 201 201 201 211 211 83 83 83 48 48 48 48 169 169 169
 169 207 206 206 206 206 206 96 228 201 201 201 201 201 201 201 201 201 211 83
 83 83 48 48 48 48 169 138 169 169 206 206 206 206 206 206 96 228 228 201
 201 201 201 201 201 201 201 201 137 137 137 137 48 48 48 138 138 138 138 206
 206 206 206 206 206 96 228 228 228 201 201 201 201 201 201 201 201 137 137 137
 137 137 138 138 138 138 138 138 138 206 206 206 206 206 228 228 228 228 201 201
 201 201 201 201 201 201 137 137 137 137 137 138 138 138 138 138 138 29 29 206
 206 206 206 228 228 228 228 201 201 201 201 201 201 201 137 137 137 137 137 137
 138 138 138 138 138 29 29 29 29 206 206 206 228 228 228 228 195 201 201 201
 201 201 201 208 208 208 208 208 208 138 138 138 138 138 29 29 29 29 29 29
 206 93 93 195 195 195 195 201 201 201 201 208 208 208 208 208 208 208 208 138
 138 52 52 52 29 29 29 29 215 93 93 93 93 195 195 195 2 2 2 201
 208 208 208 208 208 208 208 143 138 143 52 52 52 52 136 136 136 136 93 93
 93 18 18 18 2 2 2 2 212 212 212 208 208 208 208 143 143 143 143 143
 52 52 136 136 136 136 136 46 46 46 18 18 18 2 2 2 2 212 212 212
 212 212 208 143 143 143 143 143 143 136 136 136 136 136 136 136 46 46 46 18
 18 18 2 2 2 2 212 212 212 212 212 143 143 143 143 143 143 143 136 136
 136 136 136 136 136 46 46 46 18 18 18 2 2 2 2 212 212 212 212 212
 143 143 143 143 143 143 136 136 136 136 136 136 136 136 46 46 46 46 46 2
 2 2 2 2 212 212 212 212 212 223 143 143 143 143 143 99 99 136 136 136
 136 136 5 146 46 46 46 46 2 2 2 90 90 90 90 90 212 223 223 223
 223 223 143 182 99 99 99 99 99 5 5 146 146 146 110 60 60 60 60 90
 90 90 90 90 90 223 223 223 223 223 223 223 182 99 99 99 99 99 5 5
 146 110 110 110 60 60 60 60 90 90 90 90 90 90 73 73 223 223 223 223
 223 182 238 238 238 238 238 238 110 110 110 110 110 60 60 60 60 36 90 90
 90 90 90 73 73 73 223 223 223 223 238 238 238 238 238 238 238 110 110 110
 110 110 60 60 60 60 36 36 90 90 90 73 73 73 73 73 223 223 223 238
 238 238 238 238 238 238 110 110 110 110 110 60 60 60 60 36 36 135 135 135
 144 73 73 73 73 223 223 223 238 238 238 238 238 238 238 110 110 110 23 23
 23 60 60 60 36 135 135 135 135 144 144 73 73 73 223 148 148 197 197 197
 238 22 22 116 214 23 23 23 23 23 242 242 242 100 135 135 135 135 77 77
 77 73 148 148 148 148 197 197 197 125 22 22 116 214 214 23 23 23 23 242
 242 100 100 100 135 135 77 77 77 77 77 148 148 148 148 197 197 197 125 22
 22 22 22 23 23 23 23 23 242 100 100 100 100 100 77 77 77 77 77 148
 148 148 148 148 197 197 197 125 22 22 22 22 22 23 23 23 23 242 100 100
 100 100 100 168 77 77 77 148 148 148 148 148 173 197 197 197 125 22 22 22
 22 79 79 23 49 23 242 100 100 100 100 168 168 168 168 94 94 148 173 173
 173 173 173 197 197 125 22 22 79 79 79 79 49 49 49 49 100 100 100 168
 168 168 168 168 114 114 173 173 173 173 173 173 169 169 169 79 79 79 79 79
 79 79 49 49 38 38 38 181 181 168 168 114 114 114 114 173 173 173 173 173
 169 169 169 169 79 79 79 79 79 79 79 49 49 38 38 38 38 181 168 114
 114 114 114 114 114 48 48 48 48 169 169 169 169 79 79 79 79 79 79 96
 96 96 201 201 201 201 201 201 114 114 114 114 114 114 48 48 48 48 169 169
 169 169 79 79 79 79 96 96 96 96 96 201 201 201 201 201 201 201 114 114
 114 114 120 120 48 48 48 138 138 138 138 206 206 206 206 96 96 96 96 96
 201 201 201 201 201 201 201 201 114 114 137 137 120 120 48 138 138 138 138 138
 138 206 206 206 96 96 96 96 96 201 201 201 201 201 201 201 201 201 137 137
 137 137 137 138 138 138 138 138 138 138 206 206 206 206 96 96 96 228 228 201
 201 201 201 201 201 201 201 137 137 137 137 137 138 138 138 138 138 138 29 29
 29 206 206 96 96 96 228 228 201 201 201 201 201 201 201 208 208 137 137 208
 208 138 138 138 138 138 29 29 29 29 29 206 206 93 93 93 93 201 201 201
 201 201 201 201 208 208 208 208 208 208 138 138 138 138 138 29 29 29 29 29
 29 93 93 93 93 93 93 201 201 201 201 201 208 208 208 208 208 208 208 208
 138 151 138 52 29 29 29 29 29 93 93 93 93 93 93 93 2 2 2 2
 201 208 208 208 208 208 208 208 151 151 151 151 52 52 136 136 136 136 93 93
 93 93 93 93 2 2 2 2 2 212 212 212 208 208 208 208 143 151 151 151
 151 52 136 136 136 136 136 136 46 46 46 46 46 2 2 2 2 2 212 212
 212 212 212 208 143 143 143 151 151 151 136 136 136 136 136 136 136 46 46 46
 46 46 2 2 2 2 2 212 212 212 212 212 212 143 143 143 143 151 151 136
 136 136 136 136 136 136 46 46 46 46 46 2 2 2 2 2 212 212 212 212
 212 212 143 143 143 143 151 151 136 136 136 136 136 136 146 46 46 46 46 46
 46 2 2 2 2 212 212 212 212 212 223 143 143 151 151 99 99 99 99 99
 136 136 146 146 146 146 46 46 46 46 2 2 90 90 90 90 90 212 223 223
 223 223 117 151 99 99 99 99 99 99 136 146 146 146 146 110 110 110 158 158
 158 90 90 90 90 90 90 223 223 223 223 117 117 99 99 99 99 99 99 99
 146 146 146 110 110 110 60 158 158 158 90 90 90 90 90 73 73 223 223 223
 117 117 238 238 238 99 238 238 238 238 110 110 110 110 110 60 60 158 158 90
 90 90 90 90 73 73 73 223 223 117 117 238 238 238 238 238 238 238 238 110
 110 110 110 110 60 60 158 158 158 90 90 90 73 73 73 73 73 223 232 232
 238 238 238 238 238 238 238 110 110 110 110 110 110 60 60 158 158 158 135 135
 135 73 73 73 73 73 232 232 232 238 238 238 238 238 238 238 110 110 110 110
 110 110 60 158 158 158 158 135 135 135 144 73 73 73 73 232 232 232 238 238
 238 238 238 22 22 110 110 23 23 23 23 23 158 100 100 100 135 135 135 77
 77 73 73 148 148 148 148 197 125 125 125 22 22 22 22 23 23 23 23 23
 23 100 100 100 100 135 135 135 77 77 94 148 148 148 148 148 197 125 125 125
 22 22 22 22 22 23 23 23 23 23 100 100 100 100 100 135 77 77 94 94
 148 148 148 148 148 197 125 125 125 22 22 22 22 22 23 23 23 23 23 100
 100 100 100 100 100 77 94 94 94 148 148 148 148 148 173 125 125 125 22 22
 22 79 79 79 23 23 23 23 100 100 100 100 100 168 114 114 94 94 94 148
 148 173 173 173 125 125 125 22 22 79 79 79 79 79 167 167 38 38 38 100
 100 114 114 114 114 114 114 94 173 173 173 173 173 169 169 125 22 79 79 79
 79 79 79 79 167 38 38 38 38 38 114 114 114 114 114 114 114 173 173 173
 173 169 169 169 169 79 79 79 79 79 79 79 79 167 38 38 38 38 38 114
 114 114 114 114 114 120 173 173 173 173 169 169 169 169 79 79 79 79 79 79
 96 96 96 38 38 38 38 201 201 114 114 114 114 114 120 120 120 120 48 169
 169 169 138 79 79 79 79 96 96 96 96 96 201 201 201 201 201 201 114 114
 114 114 114 120 120 120 120 48 138 138 138 138 138 206 206 96 96 96 96 96
 96 201 201 201 201 201 201 201 114 114 114 114 120 120 120 120 138 138 138 138
 138 138 206 96 96 96 96 96 96 96 96 201 201 201 201 201 201 201 114 137
 137 137 120 120 138 138 138 138 138 138 138 206 96 96 96 96 96 96 96 201
 201 201 201 201 201 201 201 201 137 137 137 137 20 138 138 138 138 138 138 29
 29 29 96 96 96 96 96 96 93 201 201 201 201 201 201 201 208 208 208 208
 208 208 138 138 138 138 138 29 29 29 29 29 96 96 93 93 93 93 93 201
 201 201 201 201 201 208 208 208 208 208 208 138 138 138 138 138 29 29 29 29
 29 29 93 93 93 93 93 93 201 201 201 201 201 208 208 208 208 208 208 208
 151 151 151 151 151 29 29 29 29 29 93 93 93 93 93 93 93 2 2 2
 2 201 208 208 208 208 208 208 151 151 151 151 151 151 136 136 136 136 136 93
 93 93 93 93 93 93 2 2 2 2 212 212 212 208 208 208 208 151 151 151
 151 151 151 136 136 136 136 136 93 93 46 46 46 46 2 2 2 2 2 212
 212 212 212 212 119 143 151 151 151 151 151 151 136 136 136 136 136 46 46 46
 46 46 46 2 2 2 2 187 212 212 212 212 212 212 143 151 151 151 151 151
 151 136 136 136 136 136 46 46 46 46 46 46 46 2 2 2 2 212 212 212
 212 212 212 143 151 151 151 151 151 136 136 136 136 136 136 146 146 46 46 46
 46 46 2 187 187 187 212 212 212 212 212 239 151 151 151 151 151 99 99 99
 99 136 136 146 146 146 146 46 46 46 158 158 187 187 90 90 90 90 239 239
 239 117 117 117 117 117 99 99 99 99 99 99 146 146 146 146 146 110 110 158
 158 158 90 90 90 90 90 239 239 239 117 117 117 117 117 99 99 99 99 99
 99 146 146 146 110 110 110 110 158 158 158 158 90 90 90 90 239 239 239 117
 117 117 117 238 238 99 99 238 238 238 146 110 110 110 110 110 110 158 158 158
 158 90 90 90 90 239 239 239 117 117 117 117 238 238 238 238 238 238 238 238
 110 110 110 110 110 110 158 158 158 158 158 90 90 90 73 73 73 73 232 232
 232 238 238 238 238 238 238 238 110 110 110 110 110 110 110 158 158 158 158 158
 135 135 73 73 73 73 232 232 232 232 238 238 238 238 238 238 238 110 110 110
 110 110 110 110 158 158 158 158 135 135 135 135 73 73 73 232 232 232 232 238
 238 238 238 22 22 22 110 110 23 23 23 23 23 158 158 158 158 135 135 135
 94 94 94 94 148 148 148 148 125 125 125 125 22 22 22 22 23 23 23 23
 23 23 100 100 100 100 100 135 135 94 94 94 94 148 148 148 148 125 125 125
 125 22 22 22 22 22 23 23 23 23 23 100 100 100 100 100 135 94 94 94
 94 94 148 148 148 148 125 125 125 125 125 22 22 22 22 23 23 23 23 23
 100 100 100 100 100 100 94 94 94 94 94 148 148 148 148 173 125 125 125 125
 22 22 79 79 79 167 167 167 167 100 100 100 100 114 114 114 114 94 94 94
 148 148 148 173 173 125 125 125 22 22 79 79 79 79 167 167 167 167 38 38
 38 114 114 114 114 114 114 94 94 173 173 173 173 173 125 125 125 22 79 79
 79 79 79 79 167 167 38 38 38 38 38 114 114 114 114 114 114 114 173 173
 173 173 169 169 169 125 79 79 79 79 79 79 79 167 167 38 38 38 38 38
 114 114 114 114 114 114 120 120 120 120 173 169 169 169 79 79 79 79 79 79
 79 96 96 96 38 38 38 38 201 114 114 114 114 114 114 120 120 120 120 120
 138 138 138 138 79 79 79 79 96 96 96 96 96 145 38 201 201 201 201 114
 114 114 114 114 120 120 120 120 120 138 138 138 138 200 96 96 96 96 96 96
 96 96 96 201 201 201 201 201 201 114 114 114 120 120 120 120 120 120 138 138
 138 138 200 96 96 96 96 96 96 96 96 96 201 201 201 201 201 201 201 114
 114 20 20 20 20 120 138 138 138 138 138 138 96 96 96 96 96 96 96 96
 96 201 201 201 201 201 201 201 201 20 20 20 20 20 20 138 138 138 138 138
 29 29 29 96 96 96 96 96 96 93 156 201 201 201 201 201 201 208 208 208
 208 20 20 138 138 138 138 138 29 29 29 29 29 96 96 93 93 93 93 156
 156 156 201 201 201 201 208 208 208 208 208 208 151 138 151 138 138 29 29 29
 29 29 93 93 93 93 93 93 156 156 156 156 201 201 208 208 208 208 208 208
 151 151 151 151 151 151 29 29 29 29 29 93 93 93 93 93 93 93 156 156
 156 2 2 119 119 119 119 119 119 151 151 151 151 151 151 136 136 136 136 136
 93 93 93 93 93 93 93 2 2 2 2 2 212 119 119 119 119 119 151 151
 151 151 151 151 136 136 136 136 136 93 93 93 93 93 93 93 2 2 187 187
 187 212 212 119 119 119 119 151 151 151 151 151 151 136 136 136 136 136 46 46
 46 46 46 46 46 2 187 187 187 187 212 212 212 119 119 119 151 151 151 151
 151 151 136 136 136 136 136 46 46 46 46 46 46 46 2 187 187 187 212 212
 212 212 212 119 151 151 151 151 151 151 99 136 136 136 136 146 146 146 46 46
 46 46 46 56 187 187 187 56 212 212 239 239 239 239 117 151 151 117 99 99
 99 99 136 146 146 146 146 146 46 46 46 158 158 147 147 147 90 90 239 239
 239 239 239 117 117 117 117 99 99 99 99 99 99 146 146 146 146 110 110 110
 158 158 147 147 147 90 90 239 239 239 239 239 117 117 117 117 99 99 99 99
 99 99 146 146 146 110 110 110 158 158 158 158 147 147 90 90 239 239 239 239
 239 117 117 117 117 238 238 238 238 238 238 238 110 110 110 110 110 158 158 158
 158 158 158 90 90 239 239 239 239 239 117 117 117 232 238 238 238 238 238 238
 238 110 110 110 110 110 158 158 158 158 158 158 90 90 239 239 239 239 232 232
 232 232 238 238 238 238 238 238 238 110 110 110 110 110 110 158 158 158 158 158
 158 135 135 239 239 73 239 232 232 232 232 238 238 238 238 238 238 238 110 110
 110 110 110 110 158 158 158 158 158 158 135 135 135 172 172 172 232 232 232 232
 225 238 238 238 238 22 22 22 110 110 110 110 110 158 158 158 158 158 158 135
 135 94 94 94 94 94 225 225 225 225 125 125 125 22 22 22 22 23 23 23
 23 23 23 158 100 100 100 100 135 94 94 94 94 94 94 225 225 225 125 125
 125 125 22 22 22 22 22 23 23 23 23 23 100 100 100 100 100 94 94 94
 94 94 94 94 148 148 148 125 125 125 125 22 22 22 22 22 167 167 167 167
 167 67 67 100 100 100 94 94 94 94 94 94 94 148 148 148 125 125 125 125
 22 22 22 79 79 79 167 167 167 167 67 67 67 67 114 114 114 94 94 94
 94 94 148 148 173 125 125 125 125 22 22 79 79 79 79 167 167 167 167 67
 67 67 67 114 114 114 114 114 94 94 94 173 173 173 173 125 125 125 22 79
 79 79 79 79 167 167 167 167 38 38 38 114 114 114 114 114 114 114 114 120
 120 173 173 142 213 213 213 79 79 79 79 79 79 167 167 167 167 38 38 38
 114 114 114 114 114 114 114 120 120 120 120 120 142 213 213 213 79 79 79 79
 79 79 96 96 167 145 145 38 38 114 114 114 114 114 114 114 120 120 120 120
 120 138 213 213 213 79 79 79 79 96 96 96 96 96 145 145 145 201 201 114
 114 114 114 114 120 120 120 120 120 120 138 138 138 200 200 200 96 96 96 96
 96 96 96 192 145 201 201 201 201 114 114 114 114 120 120 120 120 120 120 138
 138 138 200 200 200 96 96 96 96 96 96 96 192 192 201 201 201 201 201 201
 114 114 20 20 20 20 120 120 138 138 200 200 200 200 200 96 96 96 96 96
 96 192 156 201 201 201 201 201 201 176 20 20 20 20 20 20 138 138 138 138
 200 200 200 200 96 96 96 96 96 96 156 156 156 156 201 201 201 201 119 119
 20 20 20 20 20 138 138 138 200 200 200 200 200 96 96 96 93 93 93 156
 156 156 156 156 201 201 119 119 119 119 119 119 20 180 151 151 151 200 200 200
 200 200 29 93 93 93 93 93 93 156 156 156 156 156 156 119 119 119 119 119
 119 119 151 151 151 151 151 200 200 200 29 29 93 93 93 93 93 93 156 156
 156 156 156 119 119 119 119 119 119 119 151 151 151 151 151 151 136 136 136 136
 136 93 93 93 93 93 93 93 156 156 2 2 187 119 119 119 119 119 119 151
 151 151 151 151 151 136 136 136 136 136 93 93 93 93 93 93 93 2 187 187
 187 187 212 119 119 119 119 119 151 151 151 151 151 151 136 136 136 136 136 46
 46 46 46 46 46 46 187 187 187 187 187 212 119 119 119 119 119 151 151 151
 151 151 151 136 136 136 136 136 46 46 46 46 46 46 46 187 187 187 187 187
 212 212 119 119 119 119 151 151 151 151 151 99 136 136 136 136 37 146 46 46
 46 46 46 46 56 56 56 56 56 56 102 174 174 174 174 117 117 151 117 99
 99 99 99 136 146 146 146 146 146 46 46 46 56 56 56 56 56 56 56 239
 239 239 239 239 117 117 117 117 99 99 99 99 99 99 146 146 146 146 110 110
 158 158 158 147 147 147 56 56 239 239 239 239 239 117 117 117 117 99 99 99
 99 99 99 41 41 41 110 110 110 158 158 158 147 147 147 147 147 239 239 239
 239 239 117 117 117 117 238 238 238 238 238 238 41 41 41 110 110 110 158 158
 158 158 147 147 147 147 239 239 239 239 239 117 232 232 232 238 238 238 238 238
 238 41 41 41 110 110 110 158 158 158 158 158 158 147 147 239 239 239 239 232
 232 232 232 232 238 238 238 238 238 41 41 41 41 110 110 110 158 158 158 158
 158 158 13 13 172 172 172 172 232 232 232 232 225 238 238 238 238 238 41 41
 41 41 110 110 110 158 158 158 158 158 13 13 13 172 172 172 172 232 232 232
 225 225 225 238 217 217 217 22 41 41 41 110 110 110 158 158 158 158 13 13
 13 13 172 172 172 172 225 225 225 225 225 193 193 217 217 217 22 22 41 41
 23 23 23 158 158 158 158 13 13 13 94 94 94 94 94 225 225 225 225 193
 193 193 217 217 217 22 22 22 167 167 167 167 167 67 67 100 100 25 94 94
 94 94 94 94 94 225 225 225 193 193 193 125 217 22 22 22 79 167 167 167
 167 167 67 67 67 67 67 94 94 94 94 94 94 94 94 225 225 193 193 193