# vtk DataFile Version 2.0
Data set from ImportExport Version 6.5.171.b0b162591
ASCII

DATASET RECTILINEAR_GRID
DIMENSIONS 30 30 30
X_COORDINATES 30 float
-1.250000 1.250000 3.750000 6.250000 8.750000 11.250000 13.750000 16.250000 18.750000 21.250000 23.750000 26.250000 28.750000 31.250000 33.750000 36.250000 38.750000 41.250000 43.750000 46.250000 48.750000 
51.250000 53.750000 56.250000 58.750000 61.250000 63.750000 66.250000 68.750000 71.250000 
Y_COORDINATES 30 float
-1.250000 1.250000 3.750000 6.250000 8.750000 11.250000 13.750000 16.250000 18.750000 21.250000 23.750000 26.250000 28.750000 31.250000 33.750000 36.250000 38.750000 41.250000 43.750000 46.250000 48.750000 
51.250000 53.750000 56.250000 58.750000 61.250000 63.750000 66.250000 68.750000 71.250000 
Z_COORDINATES 30 float
-1.250000 1.250000 3.750000 6.250000 8.750000 11.250000 13.750000 16.250000 18.750000 21.250000 23.750000 26.250000 28.750000 31.250000 33.750000 36.250000 38.750000 41.250000 43.750000 46.250000 48.750000 
51.250000 53.750000 56.250000 58.750000 61.250000 63.750000 66.250000 68.750000 71.250000 
CELL_DATA 24389
SCALARS FeatureIds int 1
LOOKUP_TABLE default
 59 59 59 59 59 12 12 12 160 160 160 160 160 160 160 84 84 84 84 84
 84 84 34 34 34 34 34 59 59 59 59 59 59 59 12 12 12 12 160 160
 160 229 229 229 84 84 84 84 84 84 84 34 34 34 34 34 59 59 59 59
 59 59 59 59 12 12 12 229 229 229 229 229 229 229 84 84 84 84 84 84
 34 34 34 34 34 59 59 59 59 59 59 59 59 12 12 12 229 229 229 229
 229 229 229 84 84 84 84 84 84 34 34 34 34 34 59 59 48 59 119 119
 119 119 119 119 229 229 229 229 229 229 201 229 229 84 84 84 84 84 183 183
 183 183 183 48 48 48 48 119 119 119 119 119 119 229 229 229 229 201 201 201
 201 201 201 84 84 84 183 183 183 183 183 183 48 48 48 48 119 119 119 119
 119 73 73 73 73 73 157 201 201 201 201 201 84 84 183 183 183 183 183 183
 183 48 48 48 48 48 119 119 119 119 73 73 73 73 73 157 157 80 80 80
 80 80 207 183 183 183 183 183 183 183 48 48 48 48 48 119 119 169 169 157
 157 157 157 73 73 80 80 80 80 80 80 207 183 183 183 183 183 183 183 155
 48 48 48 21 169 169 169 169 141 141 157 157 157 73 80 80 80 80 80 80
 54 54 183 183 183 183 135 155 155 155 21 21 21 169 169 169 141 141 141 141
 141 141 73 80 80 80 80 80 54 54 54 54 183 183 135 28 28 155 155 26
 26 26 169 169 169 141 141 141 141 141 141 141 80 80 80 80 54 54 54 54
 185 185 185 185 28 28 28 28 26 26 26 169 169 169 141 141 141 141 141 141
 141 141 80 80 58 58 58 58 58 185 185 185 185 28 28 28 28 26 26 26
 26 169 141 141 141 141 141 141 141 141 41 41 41 41 58 58 58 58 185 185
 185 185 28 28 28 28 26 26 26 26 169 141 141 141 141 141 141 141 141 41
 41 41 41 41 58 58 58 185 185 185 185 185 28 28 28 109 109 109 234 234
 141 141 141 141 141 141 141 141 41 41 41 41 41 82 82 82 82 185 185 185
 185 185 109 109 109 109 109 234 234 234 141 188 188 188 188 188 188 41 41 41
 41 41 82 82 82 82 13 13 13 185 185 109 109 109 109 109 234 234 234 188
 188 188 188 188 188 188 41 41 41 41 41 82 82 82 236 13 13 13 13 13
 109 109 109 109 109 234 234 234 188 188 188 188 188 188 188 37 37 37 37 95
 95 95 95 236 236 13 13 13 13 109 109 239 239 239 234 234 188 188 188 188
 188 188 188 188 37 37 37 37 95 95 95 95 236 236 236 13 13 13 109 109
 239 239 239 239 239 188 188 188 188 188 188 111 111 37 37 37 37 95 95 95
 95 236 236 236 13 217 217 145 145 11 11 11 11 11 92 92 92 111 111 111
 111 111 111 37 37 37 95 95 95 95 236 236 236 217 217 217 145 145 11 11
 11 11 11 92 92 92 111 111 111 111 111 111 111 71 71 95 95 95 29 29
 29 29 217 217 217 145 145 11 11 11 11 11 92 92 92 111 111 111 111 111
 111 111 71 71 71 29 29 29 29 29 29 217 217 217 145 11 11 11 11 11
 11 92 92 92 111 111 111 111 111 111 111 71 71 71 29 29 29 29 29 29
 217 217 217 145 11 158 158 158 158 158 92 92 92 160 160 160 160 160 160 160
 160 160 79 79 29 29 29 29 29 217 165 165 165 165 158 158 158 158 158 92
 92 160 160 160 160 160 160 160 160 160 160 79 79 84 84 29 29 34 165 165
 165 165 165 59 59 59 59 59 12 12 160 160 160 160 160 160 160 160 160 79
 79 79 84 84 84 34 34 34 165 165 165 59 59 59 59 59 59 12 12 12
 160 160 160 160 160 160 160 160 79 79 79 84 84 84 34 34 34 34 165 59
 59 59 59 59 59 59 12 12 12 12 12 12 160 160 160 160 84 84 84 84
 84 84 84 34 34 34 34 34 59 59 59 59 59 59 59 12 12 12 12 12
 12 160 229 229 229 84 84 84 84 84 84 84 34 34 34 34 34 59 59 59
 59 59 59 59 12 12 12 12 12 229 229 229 229 229 84 84 84 84 84 84
 84 34 34 34 34 34 59 59 59 59 59 59 59 59 12 12 12 12 229 229
 201 201 201 201 84 84 84 84 84 84 34 34 34 34 34 59 59 48 59 59
 59 119 119 61 12 12 229 229 201 201 201 201 201 201 84 84 84 84 84 183
 183 183 183 183 48 48 48 48 48 119 119 119 119 61 157 157 157 201 201 201
 201 201 201 201 84 84 84 183 183 183 183 183 183 48 48 48 48 48 119 119
 119 61 73 73 73 73 157 157 201 201 201 201 201 207 207 183 183 183 183 183
 183 183 48 48 48 48 48 119 119 169 169 157 157 157 157 73 157 157 201 80
 80 80 207 207 183 183 183 183 183 183 183 48 48 48 48 21 21 169 169 169
 169 157 157 157 157 73 80 80 80 80 80 207 207 207 183 183 183 183 183 183
 48 48 21 21 21 169 169 169 169 169 157 157 157 157 157 80 80 80 80 80
 207 207 207 183 183 183 183 183 183 155 155 21 21 21 169 169 169 169 141 141
 141 141 141 141 80 80 80 80 80 207 207 207 153 183 183 183 28 28 28 155
 21 21 169 169 169 169 169 141 141 141 141 141 141 80 80 80 80 80 58 58
 58 185 185 185 185 28 28 28 28 26 26 26 169 169 169 141 141 141 141 141
 141 141 141 80 80 80 58 58 58 58 58 185 185 185 28 28 28 28 26 26
 26 169 169 169 141 141 141 141 141 141 141 41 41 41 41 58 58 58 58 58
 185 185 185 28 28 28 28 26 26 26 169 169 169 141 141 141 141 141 141 141
 41 41 41 41 41 58 58 58 58 185 185 185 185 28 28 109 109 109 109 109
 234 141 141 141 141 141 141 141 141 41 41 41 41 41 58 58 58 58 185 185
 185 185 78 78 109 109 109 109 109 234 234 188 188 188 188 188 188 188 41 41
 41 41 41 82 82 82 82 13 13 13 78 78 109 109 109 109 109 109 234 188
 188 188 188 188 188 188 188 41 41 41 41 41 82 82 82 236 13 13 13 13
 78 109 109 109 109 109 109 109 188 188 188 188 188 188 188 188 37 37 37 37
 37 95 95 95 236 236 13 13 13 109 109 109 109 109 109 109 109 188 188 188
 188 188 188 188 37 37 37 37 37 37 37 95 95 236 236 236 18 18 145 109
 109 239 239 239 11 11 188 188 188 188 188 188 188 37 37 37 37 37 37 95
 95 95 236 236 236 18 145 145 145 145 11 11 11 11 11 92 92 92 188 111
 111 111 111 37 37 37 37 37 95 95 95 236 53 53 217 145 145 145 145 11
 11 11 11 11 92 92 92 92 111 111 111 111 111 71 71 71 37 95 95 29
 29 29 53 217 145 145 145 145 11 11 11 11 92 92 92 92 92 111 111 111
 111 111 71 71 71 71 29 29 29 29 29 53 217 145 145 145 145 11 11 11
 11 92 92 92 92 92 111 111 111 111 111 71 71 71 71 29 29 29 29 29
 53 217 165 145 145 145 11 11 11 11 92 92 92 92 92 111 111 111 111 122
 122 71 71 71 84 84 29 29 29 53 165 165 165 165 165 165 158 158 158 92
 92 92 92 12 160 160 160 160 160 160 160 84 84 84 84 84 84 34 165 165
 165 165 165 165 59 59 59 59 59 12 12 12 12 12 160 160 160 160 160 160
 84 84 84 84 84 84 34 34 34 165 165 165 165 59 59 59 59 59 12 12
 12 12 12 160 160 160 160 160 84 84 84 84 84 84 84 34 34 34 34 165
 165 59 59 59 59 59 12 12 12 12 12 12 12 12 12 38 38 84 84 84
 84 84 84 84 34 34 34 34 34 59 59 59 59 59 59 59 12 12 12 12
 12 12 12 38 38 38 84 84 84 84 84 84 84 34 34 34 34 34 59 59
 59 59 59 59 59 12 12 12 12 12 12 139 229 229 201 84 84 84 84 84
 84 84 34 34 34 34 34 59 59 59 59 59 59 59 12 12 12 12 12 139
 139 201 201 201 201 84 84 84 84 84 84 34 34 34 34 34 59 59 48 59
 59 59 59 61 61 61 61 139 139 139 201 201 201 201 201 84 84 84 84 84
 34 183 183 183 183 48 48 48 48 48 48 61 61 61 61 61 139 139 139 201
 201 201 201 201 3 3 84 84 183 183 183 183 183 183 48 48 48 48 48 48
 119 61 61 61 73 73 73 73 157 201 201 201 201 207 207 207 183 183 183 183
 183 183 183 48 48 48 48 48 48 169 169 169 169 157 157 157 73 73 73 201
 80 80 207 207 207 207 183 183 183 183 183 183 48 48 21 21 21 21 169 169
 169 169 157 157 157 73 73 73 80 80 80 207 207 207 207 183 183 183 183 183
 183 48 48 21 21 21 21 169 169 169 169 169 157 157 157 73 80 80 80 80
 207 207 207 207 183 183 183 183 183 183 21 21 21 21 21 169 169 169 169 169
 141 141 141 141 141 80 80 80 80 207 207 207 207 153 153 183 183 183 28 21
 21 21 21 169 169 169 169 169 141 141 141 141 141 141 80 80 80 80 207 207
 207 153 153 153 153 183 28 28 28 21 21 21 169 169 169 169 169 141 141 141
 141 141 141 141 80 80 80 58 58 58 58 153 153 185 185 28 28 28 28 224
 224 169 169 169 169 169 141 141 141 141 141 141 41 41 41 41 58 58 58 58
 58 185 185 185 78 78 78 78 224 224 224 169 169 169 141 141 141 141 141 141
 141 41 41 41 41 41 58 58 58 58 185 185 78 78 78 78 78 109 109 109
 140 169 169 141 141 141 141 141 141 141 41 41 41 41 41 58 58 58 58 185
 78 78 78 78 78 78 109 109 109 140 140 140 188 188 188 188 188 188 188 41
 41 41 41 41 41 58 58 18 18 78 78 78 78 78 109 109 109 109 109 140
 140 188 188 188 188 188 188 188 37 37 37 37 37 37 82 18 18 18 18 18
 78 78 109 109 109 109 109 140 140 140 188 188 188 188 188 188 37 37 37 37
 37 37 37 37 18 18 18 18 18 18 78 109 109 109 109 109 140 140 140 188
 188 188 188 188 188 37 37 37 37 37 37 37 37 18 18 18 18 18 18 145
 145 145 145 109 11 11 140 92 92 188 188 188 188 111 37 37 37 37 37 37
 37 37 18 18 18 18 18 145 145 145 145 145 11 11 11 92 92 92 92 92
 111 111 111 111 37 37 37 37 37 37 95 53 53 53 53 53 145 145 145 145
 11 11 11 11 92 92 92 92 92 111 111 111 111 111 71 71 71 37 37 53
 53 53 53 53 53 145 145 145 145 11 11 11 11 92 92 92 92 92 111 111
 111 111 122 71 71 71 71 71 53 53 53 53 53 53 145 145 145 145 11 11
 11 11 92 92 92 92 92 111 111 111 111 122 71 71 71 71 71 53 53 53
 53 53 53 165 145 145 145 165 11 11 11 92 92 92 92 92 111 111 122 122
 122 122 71 71 71 84 84 53 53 53 53 165 165 165 165 165 165 165 11 11
 92 92 92 92 12 12 122 122 122 122 122 122 71 84 84 84 84 53 53 53
 165 165 165 165 165 165 59 59 59 12 12 12 12 12 12 12 122 122 122 122
 122 84 84 84 84 84 84 34 34 34 165 165 165 165 59 59 59 59 12 12
 12 12 12 12 12 12 160 160 122 84 84 84 84 84 84 84 34 34 34 34
 165 165 59 59 59 59 59 12 12 12 12 12 12 12 12 38 38 38 38 114
 114 84 84 84 84 34 34 34 34 34 59 59 59 59 59 59 12 12 12 12
 12 12 12 12 38 38 38 38 114 114 84 84 84 84 34 34 34 34 34 59
 59 59 59 59 59 12 12 12 12 12 12 12 12 38 38 38 38 114 114 84
 84 84 84 34 34 34 34 34 59 59 59 59 59 59 59 12 12 12 12 12
 139 139 139 201 201 201 114 84 84 84 84 84 34 34 34 34 146 146 59 48
 59 59 59 61 61 61 61 61 139 139 139 139 201 201 201 3 3 3 3 84
 84 34 183 183 183 146 146 48 48 48 48 61 61 61 61 61 61 139 139 139
 139 201 201 201 3 3 3 3 3 183 183 183 183 183 183 48 48 48 48 48
 48 61 61 61 61 61 139 139 139 139 201 201 201 3 3 3 3 207 183 183
 183 183 183 183 48 48 48 21 21 21 169 169 61 61 91 91 73 73 73 73
 201 80 207 207 207 207 207 183 183 183 183 183 183 48 48 21 21 21 21 169
 169 169 169 91 91 91 73 73 73 80 80 207 207 207 207 207 183 183 183 183
 183 183 21 21 21 21 21 21 169 169 169 169 91 91 91 77 73 80 80 80
 207 207 207 207 207 153 153 183 183 183 183 21 21 21 21 21 169 169 169 169
 169 91 91 91 141 77 80 80 80 207 207 207 207 153 153 153 153 183 183 183
 21 21 21 21 21 169 169 169 169 169 141 141 141 141 141 80 80 80 207 207
 207 207 153 153 153 153 153 78 78 21 21 21 21 21 169 169 169 169 169 141
 141 141 141 141 141 80 80 207 207 58 58 153 153 153 153 78 78 78 78 78
 224 224 224 169 169 169 169 141 141 141 141 141 141 141 41 41 41 58 58 58
 58 153 153 153 78 78 78 78 78 224 224 224 169 169 169 169 141 141 141 141
 141 141 41 41 41 41 41 58 58 58 58 153 78 78 78 78 78 78 224 224
 224 140 140 140 169 141 141 141 141 141 141 41 41 41 41 41 58 58 58 58
 78 78 78 78 78 78 78 224 224 140 140 140 140 46 46 188 188 188 188 156
 156 156 156 156 156 156 58 18 18 18 78 78 78 78 78 78 109 109 140 140
 140 140 46 46 188 188 188 188 10 156 156 156 156 156 156 156 18 18 18 18
 18 78 78 78 109 109 109 140 140 140 140 46 46 171 171 188 10 10 37 37
 37 37 37 37 37 18 18 18 18 18 18 78 78 109 109 109 140 140 140 140
 46 171 171 171 171 10 10 37 37 37 37 37 37 37 18 18 18 18 18 18
 18 145 145 145 109 140 140 140 92 171 171 171 171 171 10 10 37 37 37 37
 37 37 37 18 18 18 18 18 18 145 145 145 145 11 11 11 92 92 92 92
 171 171 171 10 10 37 37 37 37 37 37 37 53 53 53 53 53 53 145 145
 145 145 11 11 11 92 92 92 92 92 111 111 111 122 122 71 71 71 71 71
 53 53 53 53 53 53 145 145 145 145 145 11 11 11 92 92 92 92 92 92
 111 122 122 122 71 71 71 71 71 53 53 53 53 53 53 145 145 145 145 165
 11 11 11 92 92 92 92 92 92 122 122 122 122 71 71 71 71 71 53 53
 53 53 53 53 165 145 145 145 165 165 11 92 92 92 92 92 92 92 122 122
 122 122 122 71 71 71 71 53 53 53 53 53 53 165 165 165 165 165 165 165
 92 92 92 92 92 12 12 122 122 122 122 122 71 71 84 84 84 53 53 53
 53 53 165 165 165 165 165 165 59 59 12 12 12 12 12 12 12 122 122 122
 122 122 84 84 84 84 84 84 34 34 165 165 165 165 165 59 59 59 59 12
 12 12 12 12 12 12 12 122 122 38 38 84 84 84 84 84 84 34 34 34
 165 165 165 59 59 59 59 59 12 12 12 12 12 12 12 12 38 38 38 38
 114 114 114 84 84 84 34 34 34 34 34 59 59 59 59 59 59 12 12 12
 12 12 12 12 38 38 38 38 38 114 114 114 114 84 84 34 34 34 34 34
 59 59 59 59 59 59 12 12 12 12 12 12 12 38 38 38 38 38 114 114
 114 114 84 84 209 34 34 34 146 146 146 59 59 59 33 33 61 61 61 61
 61 139 139 38 38 38 38 114 114 114 114 84 84 209 209 209 209 146 146 146
 146 59 33 33 61 61 61 61 61 61 139 139 139 201 201 3 3 3 3 3
 3 209 209 209 209 209 146 146 146 48 48 33 33 61 61 61 61 61 61 139
 139 139 201 201 3 3 3 3 3 3 3 183 183 183 183 146 146 146 48 48
 21 21 61 61 61 61 61 61 139 139 139 201 201 3 3 3 3 3 3 183
 183 183 183 183 146 146 48 21 21 21 21 226 61 61 61 91 91 91 139 139
 73 201 3 207 207 207 207 207 207 177 177 177 183 183 48 48 21 21 21 21
 169 169 169 91 91 91 91 77 77 77 80 207 207 207 207 207 207 153 177 177
 177 177 177 21 21 21 21 21 21 169 169 169 91 91 91 91 77 77 77 80
 207 207 207 207 207 207 153 153 177 177 177 177 21 21 21 21 21 169 169 169
 169 169 91 91 91 77 77 77 80 207 207 207 207 207 153 153 153 153 177 177
 177 21 21 21 21 21 169 169 169 169 169 91 91 91 141 77 77 80 207 207
 207 207 153 153 153 153 153 177 78 78 21 21 21 21 21 169 169 169 169 169
 141 141 141 141 141 141 80 207 207 207 207 153 153 153 153 153 78 78 78 78
 86 224 224 224 169 169 169 169 169 141 141 141 141 141 141 41 156 207 207 58
 153 153 153 153 153 78 78 78 78 78 224 224 224 140 169 169 169 169 141 141
 141 141 141 156 41 156 41 156 58 58 153 153 153 78 78 78 78 78 224 224
 224 224 140 140 140 46 46 141 141 141 141 156 156 156 156 156 156 156 58 153
 153 78 78 78 78 78 78 224 224 224 140 140 140 140 46 46 46 188 188 188
 156 156 156 156 156 156 156 156 18 18 18 78 78 78 78 78 78 224 140 140
 140 140 140 46 46 46 171 171 10 10 156 156 156 156 156 156 156 18 18 18
 18 18 78 78 78 78 140 140 140 140 140 140 46 46 171 171 171 10 10 10
 156 37 37 156 156 156 18 18 18 18 18 18 78 78 78 140 140 140 140 140
 140 46 171 171 171 171 10 10 10 37 37 37 37 37 37 18 18 18 18 18
 18 18 18 145 145 140 140 140 140 140 171 171 171 171 171 10 10 10 37 37
 37 37 37 37 18 18 18 18 18 18 145 145 145 145 145 140 140 92 92 92
 92 171 171 171 10 10 10 37 37 37 37 37 228 228 53 53 53 53 53 145
 145 145 145 11 11 92 92 92 92 92 92 92 122 122 122 122 71 71 71 37
 228 228 228 53 53 53 53 53 145 145 145 145 11 11 92 92 92 92 92 92
 92 122 122 122 122 71 71 71 71 228 228 228 53 53 53 53 53 145 145 145
 165 165 11 92 92 92 92 92 92 92 122 122 122 122 122 71 71 71 228 228
 53 53 53 53 53 53 145 145 165 165 165 165 92 92 92 92 92 92 92 122
 122 122 122 122 122 71 71 53 53 53 53 53 53 53 165 165 165 165 165 165
 165 92 92 92 92 12 12 12 122 122 122 122 122 122 71 114 114 53 53 53
 53 53 53 165 165 165 165 165 165 59 12 12 12 12 12 12 12 12 122 122
 122 122 122 114 114 114 84 53 53 53 53 53 165 165 165 165 59 59 59 12
 12 12 12 12 12 12 12 12 38 38 38 38 114 114 114 84 84 84 34 34
 34 165 165 165 165 59 59 59 12 12 12 12 12 12 12 12 38 38 38 38
 38 114 114 114 114 84 84 209 209 209 209 146 146 59 59 59 33 33 12 12
 12 12 12 12 12 38 38 38 38 38 114 114 114 114 84 209 209 209 209 209
 146 146 146 146 33 33 33 33 12 12 12 12 12 12 38 38 38 38 38 114
 114 114 114 114 209 209 209 209 209 146 146 146 146 33 33 33 33 61 61 61
 61 61 12 38 38 38 38 38 114 114 114 114 114 209 209 209 209 209 146 146
 146 146 33 33 33 33 61 61 61 61 61 139 139 139 38 38 3 3 3 3
 3 3 209 209 209 209 209 146 146 146 146 4 4 33 61 61 61 61 61 61
 139 139 139 139 3 3 3 3 3 3 3 209 209 209 209 146 146 146 146 4
 4 4 4 226 61 61 61 61 61 132 132 132 132 3 3 3 3 3 3 3
 177 177 177 177 177 146 146 146 4 4 4 4 226 226 226 61 91 91 91 132
 132 132 3 3 3 3 207 207 207 177 177 177 177 177 177 4 4 4 4 4
 4 226 226 226 91 91 91 91 77 77 77 77 207 207 207 207 207 207 177 177
 177 177 177 177 21 21 21 21 21 21 169 169 169 91 91 91 91 77 77 77
 77 207 207 207 207 207 153 153 177 177 177 177 177 21 21 21 21 21 169 169
 169 169 91 91 91 91 77 77 77 77 207 207 207 207 207 153 153 153 177 177
 177 177 21 21 86 86 86 169 169 169 169 169 91 91 91 91 77 77 207 207
 207 207 207 153 153 153 153 153 177 177 78 78 86 86 86 86 86 169 169 169
 169 141 141 141 141 141 150 150 150 207 207 207 153 153 153 153 153 78 78 78
 78 86 86 86 86 86 16 16 16 169 141 141 141 141 141 150 150 156 156 207
 153 153 153 153 153 78 78 78 78 78 86 224 224 224 224 16 16 16 16 141
 141 141 141 156 156 156 156 156 156 153 153 153 153 153 78 78 78 78 78 224
 224 224 224 140 140 219 219 46 46 141 141 156 156 156 156 156 156 156 156 153
 153 153 78 78 78 78 78 78 224 224 224 140 140 140 140 46 46 46 46 188
 156 156 156 156 156 156 156 156 156 18 18 18 78 78 78 78 78 224 224 140
 140 140 140 140 46 46 46 171 171 10 10 156 156 156 156 156 156 156 18 18
 18 18 18 78 78 78 224 140 140 140 140 140 140 46 46 171 171 171 10 10
 10 156 156 156 156 156 156 18 18 18 18 18 18 18 78 224 140 140 140 140
 140 140 46 171 171 171 171 10 10 10 10 37 37 37 37 18 18 18 18 18
 18 18 18 18 145 140 140 140 140 140 140 171 171 171 171 171 10 10 10 10
 37 37 37 37 228 18 18 18 18 18 18 18 145 145 145 145 140 140 140 92
 92 171 171 171 171 10 10 10 10 37 37 37 228 228 228 228 53 53 53 53
 145 145 145 145 145 11 92 92 92 92 92 92 171 122 122 122 122 122 71 71
 37 228 228 228 228 53 53 53 53 145 145 145 145 145 11 92 92 92 92 92
 92 92 122 122 122 122 122 71 71 71 228 228 228 228 53 53 53 53 145 145
 145 165 165 11 92 92 92 92 92 92 92 122 122 122 122 122 122 71 71 228
 228 228 53 53 53 53 53 145 145 145 165 165 165 92 92 92 92 92 92 92
 122 122 122 122 122 122 122 122 228 228 53 53 53 53 53 53 165 165 165 165
 165 165 92 92 92 12 12 12 12 122 122 122 122 122 122 122 114 114 228 53
 53 53 53 53 53 165 165 165 165 165 165 12 12 12 12 12 12 12 12 12
 20 20 20 20 114 114 114 114 53 53 53 53 53 53 165 165 165 59 59 59
 12 12 12 12 12 12 12 12 12 20 38 38 38 114 114 114 114 84 53 53
 53 53 53 165 165 165 33 33 33 12 12 12 12 12 12 12 12 38 38 38
 38 38 114 114 114 114 114 117 209 209 209 209 146 146 146 33 33 33 33 33
 12 12 12 12 12 12 38 38 38 38 38 114 114 114 114 114 209 209 209 209
 209 146 146 146 33 33 33 33 33 33 12 12 12 12 12 38 38 38 38 38
 114 114 114 114 114 209 209 209 209 209 146 146 146 146 33 33 33 33 33 61
 61 61 61 12 38 38 38 38 38 114 114 114 114 209 209 209 209 209 209 146
 146 146 146 33 33 33 33 61 61 61 61 61 61 139 38 38 38 3 3 3
 3 3 3 209 209 209 209 209 146 146 146 4 4 4 33 226 61 61 61 61
 61 132 132 132 132 3 3 3 3 3 3 3 209 209 209 209 209 146 146 146
 4 4 4 4 226 226 61 61 61 61 132 132 132 132 132 3 3 3 3 3
 3 177 177 177 177 177 146 146 4 4 4 4 4 226 226 226 61 91 91 132
 132 132 132 132 3 3 3 3 3 177 177 177 177 177 177 177 4 4 4 4
 4 4 226 226 226 91 91 91 91 132 132 132 132 207 207 207 207 207 177 177
 177 177 177 177 177 177 4 4 4 4 4 226 226 226 91 91 91 91 77 77
 77 77 207 207 207 207 207 153 177 177 177 177 177 177 177 4 21 86 21 169
 169 169 169 91 91 91 91 77 77 77 150 207 207 207 207 153 153 153 177 177
 177 177 177 177 86 86 86 86 86 16 16 16 91 91 91 91 91 77 150 150
 150 207 207 207 153 153 153 153 177 177 177 177 86 86 86 86 86 86 16 16
 16 16 91 91 91 91 150 150 150 150 150 150 153 153 153 153 153 153 78 78
 78 78 86 86 86 86 16 16 16 16 16 16 141 141 141 150 150 150 150 150
 150 153 153 153 153 153 78 78 78 78 78 86 86 86 86 86 16 16 16 16
 16 141 141 141 156 156 150 150 150 156 153 153 153 153 78 78 78 78 78 78
 86 224 224 224 140 219 219 219 219 219 219 141 156 156 156 156 156 156 156 156
 138 138 138 78 78 78 78 78 78 224 224 224 140 140 140 219 219 46 46 46
 46 156 156 156 156 156 156 156 156 138 138 18 18 78 78 78 78 78 224 140
 140 140 140 140 140 46 46 46 171 10 10 10 156 156 156 156 156 156 156 18
 18 18 18 18 78 78 78 78 140 140 140 140 140 140 46 46 171 171 171 10
 10 10 156 156 156 156 156 156 18 18 18 18 18 18 18 78 78 140 140 140
 140 140 140 46 171 171 171 171 10 10 10 10 156 156 156 156 18 18 18 18
 18 18 18 18 18 97 140 140 140 140 140 140 171 171 171 171 171 10 10 10
 10 10 37 37 37 228 18 18 18 18 18 18 18 145 97 145 140 140 140 140
 92 92 171 171 171 171 10 10 10 10 10 37 37 228 228 228 228 53 53 53
 53 53 145 145 145 145 140 140 92 92 92 92 92 180 180 122 122 122 122 10
 71 228 228 228 228 228 53 53 53 53 53 145 145 145 232 232 92 92 92 92
 92 92 180 122 122 122 122 122 71 71 71 228 228 228 228 53 53 53 53 53
 145 145 165 232 232 232 92 92 92 92 92 2 2 122 122 122 122 122 71 228
 228 228 228 53 53 53 53 53 53 145 145 232 232 232 232 92 92 92 92 92
 2 2 122 122 122 122 122 122 122 228 228 53 53 53 53 53 53 53 165 165
 165 232 232 232 12 12 12 12 12 12 2 2 20 20 20 20 20 20 114 228
 53 53 53 53 53 53 53 165 165 165 232 232 12 12 12 12 12 12 12 12
 20 20 20 20 20 20 114 114 114 53 53 53 53 53 53 165 165 165 232 232
 12 12 12 12 12 12 12 12 12 20 20 20 20 20 114 114 114 114 117 117
 117 117 53 53 165 165 165 33 33 33 33 12 12 12 12 12 12 12 20 20
 20 20 38 114 114 114 114 117 117 117 62 62 62 146 146 146 33 33 33 33
 33 12 12 12 12 12 12 38 38 38 38 38 114 114 114 62 35 35 62 209
 209 209 146 146 146 33 33 33 33 33 33 12 12 12 12 12 187 187 187 187
 187 114 114 114 62 62 62 209 209 209 209 146 146 146 146 33 33 33 33 33
 61 61 61 225 187 187 187 187 187 187 114 114 114 62 62 209 209 209 209 209
 146 146 146 146 33 33 33 33 33 61 61 61 225 225 187 187 187 187 187 3
 3 3 3 235 209 209 209 209 209 146 146 146 4 4 4 33 226 226 61 61
 61 225 132 132 132 187 187 187 3 3 3 3 235 235 209 209 209 209 146 146
 146 4 4 4 226 226 226 226 61 61 132 132 132 132 132 187 3 3 3 3
 3 235 235 177 177 177 177 146 146 4 4 4 4 226 226 226 226 226 25 132
 132 132 132 132 132 3 3 3 3 3 177 177 177 177 177 177 177 4 4 4
 4 4 226 226 226 226 226 91 91 132 132 132 132 132 210 210 210 210 207 177
 177 177 177 177 177 177 177 4 4 4 4 226 226 226 226 91 91 91 91 132
 132 132 132 210 210 210 210 207 177 177 177 177 177 177 177 177 4 86 86 86
 86 226 226 169 91 91 91 91 77 77 150 150 150 210 210 207 153 153 177 177
 177 177 177 177 177 86 86 86 86 86 16 16 16 16 91 91 91 91 150 150
 150 150 150 150 153 153 153 153 177 177 177 177 177 86 86 86 86 86 16 16
 16 16 16 16 91 91 150 150 150 150 150 150 150 150 153 153 153 153 177 177
 177 78 86 86 86 86 86 86 16 16 16 16 16 91 91 150 150 150 150 150
 150 150 150 153 153 153 153 78 78 78 78 78 86 86 86 86 86 16 16 16
 16 16 16 141 150 150 150 150 150 150 150 150 138 138 138 78 78 78 78 78
 78 86 86 86 86 219 219 219 219 219 219 219 219 150 150 150 150 150 150 150
 138 138 138 138 78 78 78 78 78 78 86 224 224 140 140 219 219 219 219 46
 46 46 156 156 156 156 156 156 156 156 138 138 138 173 173 78 78 78 78 86
 140 140 140 140 140 219 219 219 46 171 10 10 10 156 156 156 156 156 156 138
 138 18 18 18 18 78 78 78 78 140 140 140 140 140 140 46 46 171 171 171
 10 10 10 156 156 156 156 49 49 208 208 18 18 18 18 18 18 18 140 140
 140 140 140 140 46 171 171 171 171 10 10 10 10 156 156 156 49 49 208 208
 18 18 18 18 18 18 97 97 140 140 140 140 96 96 171 171 171 171 10 10
 10 10 7 7 7 49 49 208 208 18 18 18 87 87 97 97 97 97 140 140
 96 96 96 180 180 180 180 10 10 10 10 7 7 7 237 228 228 228 53 53
 87 87 87 97 97 232 232 232 232 231 92 92 180 180 180 180 180 2 122 10
 7 7 237 237 228 228 228 53 53 53 87 87 97 97 232 232 232 232 92 92
 92 180 180 180 180 2 2 2 122 7 237 237 237 237 228 228 53 53 53 53
 53 145 145 232 232 232 232 232 92 92 180 180 180 2 2 2 2 2 20 20
 237 237 237 228 53 53 53 53 53 53 145 232 232 232 232 232 232 92 92 92
 2 2 2 2 2 20 20 20 20 237 237 237 53 53 53 53 53 53 53 165
 232 232 232 232 232 232 12 12 12 12 2 2 2 20 20 20 20 20 20 237
 237 53 53 53 53 53 53 53 165 232 232 232 232 232 12 12 12 12 12 12
 2 20 20 20 20 20 20 114 114 117 117 117 53 53 53 53 165 165 232 232
 232 232 12 12 12 12 12 12 12 12 20 20 20 20 20 114 114 114 117 117
 117 117 117 53 53 165 165 232 27 33 33 33 33 12 12 12 12 12 12 20
 20 20 20 20 114 114 114 117 117 117 62 62 62 62 215 215 215 27 33 33
 33 33 33 12 12 12 12 12 187 187 187 187 187 114 114 62 62 62 35 62
 62 209 209 215 215 215 27 33 33 33 33 33 33 12 12 225 187 187 187 187
 187 187 187 114 62 62 62 62 62 209 209 209 215 215 215 27 33 33 33 33
 33 33 225 225 225 225 187 187 187 187 187 187 187 62 62 62 62 209 209 209
 209 215 215 215 27 33 33 33 33 33 61 225 225 225 225 187 187 187 187 187
 187 3 3 235 235 235 209 209 209 209 215 215 27 4 4 4 33 226 226 226
 225 225 225 225 132 187 187 187 187 3 3 3 235 235 235 235 209 209 209 215
 146 146 4 4 4 226 226 226 226 226 225 225 132 132 132 132 187 187 3 3
 3 235 235 235 235 177 177 177 177 4 4 4 4 4 226 226 226 226 226 25
 25 132 132 132 132 132 210 210 210 210 235 235 177 177 177 177 177 177 4 4
 69 4 69 226 226 226 226 226 25 25 132 132 132 132 132 210 210 210 210 210
 177 177 177 177 177 177 177 177 69 69 69 69 226 226 226 226 226 91 25 132
 132 132 132 210 210 210 210 210 210 177 177 177 177 177 177 177 177 69 69 86
 69 226 226 226 226 226 91 91 91 132 132 150 150 150 210 210 210 153 177 177
 177 177 177 177 177 177 86 86 86 86 86 16 16 16 16 93 91 91 132 150
 150 150 150 150 150 210 153 153 177 177 177 177 177 177 86 86 86 86 86 136
 16 16 16 16 16 93 93 150 150 150 150 150 150 150 150 153 153 153 177 177
 177 177 177 86 86 86 86 86 86 16 16 16 16 16 93 93 150 150 150 150
 150 150 150 150 150 153 153 153 78 78 78 78 86 86 86 86 86 86 16 16
 16 16 16 93 112 150 150 150 150 150 150 150 150 138 138 138 138 78 78 78
 78 78 86 86 86 86 219 219 219 219 219 219 219 112 150 150 150 150 150 150
 150 150 138 138 138 173 173 173 78 78 78 86 224 224 140 140 219 219 219 219
 219 219 218 121 121 121 121 121 121 121 121 138 138 138 173 173 173 173 78 78
 86 140 140 140 140 140 219 219 219 219 218 218 10 10 121 121 121 121 121 49
 138 138 208 173 173 173 173 78 78 78 140 140 140 140 96 96 96 96 171 171
 171 10 10 121 121 121 121 121 49 49 208 208 208 173 173 173 18 18 97 97
 140 140 140 96 96 96 96 96 171 171 10 10 7 7 7 7 7 49 49 208
 208 208 208 87 87 87 97 97 97 97 199 96 96 96 96 96 171 171 180 10
 10 7 7 7 7 7 49 49 208 208 208 87 87 87 87 97 97 97 97 199
 96 96 96 96 180 180 180 180 180 10 7 7 7 7 7 237 237 208 208 208
 87 87 87 87 97 97 97 232 232 232 231 96 96 180 180 180 180 180 2 2
 7 7 7 237 237 237 237 237 53 87 87 87 87 97 97 232 232 232 232 231
 231 180 180 180 180 180 2 2 2 2 7 237 237 237 237 237 237 53 53 87
 87 163 163 163 232 232 232 232 232 231 180 180 180 180 2 2 2 2 2 2
 237 237 237 237 237 237 53 53 53 163 163 163 232 232 232 232 232 232 94 94
 180 2 2 2 2 2 2 20 20 20 237 237 237 237 237 53 53 53 163 163
 163 232 232 232 232 232 232 94 94 12 56 2 2 2 2 20 20 20 20 15
 237 237 237 237 53 53 53 163 163 232 232 232 232 232 232 94 12 12 12 56
 56 2 2 20 20 20 20 20 15 15 237 117 117 62 62 53 163 163 232 232
 232 232 232 232 94 12 12 12 12 56 56 20 20 20 20 20 20 15 15 117
 117 117 62 62 62 62 163 232 232 27 33 33 33 94 94 94 56 56 56 56
 56 187 187 187 187 187 15 62 62 62 62 62 62 62 62 27 27 27 27 33
 33 33 33 94 94 56 56 56 56 187 187 187 187 187 187 62 62 62 62 35
 62 62 62 62 27 27 27 27 33 33 33 33 33 33 225 225 56 187 187 187
 187 187 187 187 187 62 62 62 62 62 62 209 27 27 27 27 27 33 33 33
 33 33 33 225 225 225 225 187 187 187 187 187 187 187 62 62 62 62 62 209
 209 27 27 27 27 27 33 33 33 33 33 225 225 225 225 225 187 187 187 187
 187 187 220 220 220 235 235 235 209 209 27 27 27 27 69 69 69 33 226 226
 226 225 225 225 225 225 187 187 187 187 187 220 220 220 235 235 235 235 209 27
 27 27 27 69 69 69 69 226 226 226 225 225 225 225 132 132 187 187 187 187
 220 220 220 235 235 235 235 177 177 27 27 69 69 69 69 69 226 226 226 25
 25 25 25 132 132 132 132 210 210 210 210 210 235 235 177 177 177 177 177 69
 69 69 69 69 69 226 226 226 226 25 25 25 132 132 132 132 210 210 210 210
 210 177 177 177 177 177 177 177 69 69 69 69 69 69 226 226 226 226 25 25
 25 132 132 172 210 210 210 210 210 210 177 177 177 177 177 177 177 177 69 69
 69 69 69 226 16 93 93 93 25 25 132 172 150 150 150 210 210 210 210 177
 177 177 177 177 177 177 177 86 136 136 136 136 16 16 93 93 93 93 93 150
 150 150 150 150 150 150 150 153 153 177 177 177 177 177 177 86 86 136 136 136
 136 16 16 93 93 93 93 93 150 150 150 150 150 150 150 150 150 153 153 177
 177 177 177 177 136 136 136 136 136 136 16 16 93 93 93 93 93 150 150 150
 150 81 150 150 150 150 138 138 138 78 78 78 78 136 136 136 136 136 136 16
 16 93 93 93 93 112 150 150 150 150 150 150 150 150 138 138 138 138 173 78
 78 78 136 136 136 136 136 136 219 219 219 93 93 93 112 150 150 150 150 150
 150 150 150 138 138 138 173 173 173 173 78 78 136 136 136 140 140 219 219 219
 219 219 218 218 121 121 121 121 121 121 121 121 138 138 138 173 173 173 173 173
 78 136 136 140 140 96 96 96 96 96 96 218 218 218 121 121 121 121 121 121
 49 49 208 208 173 173 173 173 173 173 97 97 96 96 96 96 96 96 96 96
 218 218 218 121 121 121 121 121 121 49 49 208 208 208 173 173 173 173 97 97
 97 199 96 96 96 96 96 96 96 96 218 218 7 7 7 7 7 7 49 49
 208 208 208 208 87 87 87 97 97 97 199 199 96 96 96 96 96 96 180 180
 218 7 7 7 7 7 7 49 49 208 208 208 208 87 87 87 97 97 199 199
 199 96 96 96 96 96 180 180 180 180 7 7 7 7 7 7 237 237 208 208
 208 87 87 87 87 97 97 199 199 199 231 231 231 231 180 180 180 180 180 2