# vtk DataFile Version 2.0
Data set from ImportExport Version 6.5.171.b0b162591
ASCII

DATASET RECTILINEAR_GRID
DIMENSIONS 30 30 30
X_COORDINATES 30 float
-1.250000 1.250000 3.750000 6.250000 8.750000 11.250000 13.750000 16.250000 18.750000 21.250000 23.750000 26.250000 28.750000 31.250000 33.750000 36.250000 38.750000 41.250000 43.750000 46.250000 48.750000 
51.250000 53.750000 56.250000 58.750000 61.250000 63.750000 66.250000 68.750000 71.250000 
Y_COORDINATES 30 float
-1.250000 1.250000 3.750000 6.250000 8.750000 11.250000 13.750000 16.250000 18.750000 21.250000 23.750000 26.250000 28.750000 31.250000 33.750000 36.250000 38.750000 41.250000 43.750000 46.250000 48.750000 
51.250000 53.750000 56.250000 58.750000 61.250000 63.750000 66.250000 68.750000 71.250000 
Z_COORDINATES 30 float
-1.250000 1.250000 3.750000 6.250000 8.750000 11.250000 13.750000 16.250000 18.750000 21.250000 23.750000 26.250000 28.750000 31.250000 33.750000 36.250000 38.750000 41.250000 43.750000 46.250000 48.750000 
51.250000 53.750000 56.250000 58.750000 61.250000 63.750000 66.250000 68.750000 71.250000 
CELL_DATA 24389
SCALARS FeatureIds int 1
LOOKUP_TABLE default
 220 237 237 237 237 128 128 128 128 212 212 212 132 132 146 146 146 167 167 167
 167 238 238 238 220 220 220 220 220 220 220 237 237 237 128 128 128 128 128 212
 132 132 132 132 146 146 167 167 167 167 238 238 238 220 220 220 220 220 220 220
 237 237 128 128 128 128 128 128 128 132 132 132 132 132 167 167 167 167 167 238
 238 238 220 220 220 220 220 220 220 237 237 128 128 128 128 128 128 128 132 132
 132 132 132 57 57 57 167 167 238 238 238 220 220 220 220 220 220 220 13 231
 81 81 81 81 81 81 81 187 187 187 187 187 57 57 57 57 57 238 238 238
 20 20 20 20 20 13 13 13 13 81 81 81 81 81 81 81 187 187 187 187
 187 182 182 94 94 94 94 94 94 20 20 20 20 20 13 13 13 225 81 81
 81 81 81 81 81 244 244 37 244 244 182 182 182 94 94 94 94 94 20 20
 20 20 20 13 13 225 225 225 22 22 22 22 22 73 244 37 37 37 244 244
 182 182 94 94 94 94 94 20 20 20 20 20 13 225 225 225 225 22 22 22
 22 22 22 37 37 37 37 37 37 182 182 182 31 31 31 31 38 20 20 20
 13 225 225 225 225 225 22 22 22 22 22 22 37 37 37 37 169 169 169 31
 31 31 31 31 31 31 38 20 20 13 224 224 224 225 225 22 22 22 22 22
 22 37 37 37 169 169 169 169 31 31 31 31 31 31 31 38 38 224 224 224
 224 224 224 225 22 234 234 234 234 234 148 148 169 169 169 169 169 169 31 31
 30 30 30 30 30 224 224 224 224 224 224 224 225 234 234 234 234 234 148 148
 148 91 91 91 91 91 91 91 30 30 30 30 30 30 30 224 224 224 224 224
 224 224 234 234 234 234 234 148 148 148 91 91 91 91 91 91 91 30 30 30
 30 30 104 104 104 224 224 224 224 184 208 208 208 199 173 173 173 173 173 91
 91 91 91 91 91 91 30 30 30 30 104 104 104 104 104 184 184 184 208 208
 208 208 199 173 173 173 173 173 173 91 91 91 91 91 41 41 41 41 104 104
 104 104 104 104 184 184 208 208 208 208 208 199 199 173 173 173 173 92 92 92
 92 92 92 41 41 41 41 104 104 104 104 104 104 208 208 208 208 208 208 208
 199 199 125 173 173 173 92 92 92 92 92 92 41 41 41 41 41 104 104 104
 104 104 208 208 208 208 208 208 208 199 199 125 125 173 92 92 92 92 92 92
 92 10 10 41 41 41 41 104 104 104 104 208 208 208 208 208 208 125 125 125
 125 123 123 123 92 92 92 92 92 10 10 10 10 10 10 10 10 104 239 239
 105 105 105 208 125 125 125 125 125 125 123 123 123 123 92 92 92 92 10 10
 10 10 10 10 222 222 239 239 239 239 105 105 105 105 125 125 125 125 123 123
 123 123 123 92 92 92 98 98 98 10 10 222 222 222 222 239 239 239 239 239
 28 28 211 211 211 211 211 123 123 123 123 123 123 92 98 98 98 98 98 222
 222 222 222 222 222 239 239 239 28 28 28 28 211 211 211 211 211 123 123 123
 123 123 146 98 98 98 98 98 222 222 222 222 222 239 239 239 239 28 28 28
 28 211 211 211 211 211 211 123 123 123 146 146 146 98 98 98 98 222 222 222
 222 227 227 239 239 237 28 28 28 28 211 211 211 211 211 212 212 212 146 146
 146 146 146 98 98 59 59 59 59 59 59 59 239 239 237 237 28 28 28 211
 211 211 211 212 212 212 212 146 146 146 146 146 146 98 59 59 59 59 59 59
 59 220 220 237 237 237 237 28 211 211 211 212 212 212 212 212 146 146 146 146
 146 146 167 59 59 59 59 59 227 220 220 220 237 237 237 237 237 211 211 128
 212 212 212 212 212 146 146 146 146 146 167 167 167 238 59 227 59 220 220 220
 220 220 220 237 237 237 128 128 128 128 212 212 212 132 132 132 146 146 167 167
 167 167 167 238 220 220 220 220 220 220 220 220 237 237 128 128 128 128 128 128
 212 132 132 132 132 132 132 167 167 167 167 167 238 238 220 220 220 220 220 220
 220 220 220 128 128 128 128 128 128 128 132 132 132 132 132 132 167 167 167 167
 167 238 220 220 220 220 220 220 220 220 220 231 81 81 81 81 81 81 81 132
 132 132 132 132 57 57 57 57 57 57 57 220 220 220 220 220 220 220 13 13
 231 81 81 81 81 81 81 81 187 187 187 187 187 57 57 57 57 57 57 57
 220 220 220 220 220 220 13 13 13 13 81 81 81 81 81 81 81 187 187 187
 187 187 182 182 182 182 182 94 94 38 20 20 20 20 20 13 13 13 13 81
 81 81 81 81 81 81 244 244 244 244 244 182 182 182 182 182 94 94 38 20
 20 20 20 13 13 13 13 13 13 81 22 22 22 73 73 244 244 244 244 244
 244 182 182 182 182 94 38 38 38 20 20 20 13 13 13 13 13 22 22 22
 22 22 22 22 37 37 37 37 37 37 182 182 182 182 182 38 38 38 38 20
 13 13 13 13 13 225 22 22 22 22 22 22 22 37 37 37 37 37 169 182
 182 182 182 38 38 38 38 38 38 13 13 224 224 224 225 22 22 22 22 22
 22 22 37 37 37 37 169 169 169 182 182 31 38 38 38 38 38 38 38 224
 224 224 224 224 22 22 22 22 22 22 22 37 37 169 169 169 169 169 169 30
 30 30 30 30 30 30 30 224 224 224 224 224 184 184 22 234 234 234 22 22
 148 91 91 91 91 91 91 91 91 30 30 30 30 30 30 30 30 224 224 224
 184 184 184 184 234 234 234 173 173 173 91 91 91 91 91 91 91 91 30 30
 30 30 30 104 104 104 224 184 184 184 184 184 184 199 199 199 173 173 173 173
 91 91 91 91 91 91 91 30 30 30 30 104 104 104 104 104 184 184 184 184
 184 208 199 199 199 173 173 173 173 173 91 91 91 183 183 41 41 41 30 104
 104 104 104 104 104 184 184 18 18 18 208 199 199 199 213 173 173 173 173 92
 92 92 183 183 41 41 41 41 104 104 104 104 104 104 18 18 18 18 18 208
 199 199 199 213 173 173 173 92 92 92 92 92 41 41 41 41 41 41 104 104
 104 104 104 18 18 18 18 18 125 125 199 125 125 125 173 92 92 92 92 92
 92 41 41 41 41 41 41 41 104 104 104 104 105 105 105 18 125 125 125 125
 125 125 123 123 123 92 92 92 92 92 41 41 41 41 41 41 41 104 104 239
 239 105 105 105 105 125 125 125 125 125 125 123 123 123 123 92 92 92 98 98
 41 41 41 41 41 222 222 239 239 239 239 105 105 105 105 125 125 125 125 123
 123 123 123 123 123 92 98 98 98 98 98 222 222 222 222 222 239 239 239 239
 239 105 105 105 211 211 211 211 123 123 123 123 123 123 98 98 98 98 98 98
 222 222 222 222 222 239 239 239 239 239 28 28 28 211 211 211 211 211 123 123
 123 123 123 98 98 98 98 98 98 222 222 222 222 222 239 239 239 239 28 28
 28 28 211 211 211 211 211 211 123 123 123 146 146 98 98 98 98 98 222 222
 222 222 222 239 239 239 239 28 28 28 28 211 211 211 211 211 212 212 212 146
 146 146 146 146 98 98 98 59 59 59 59 59 239 239 239 237 28 28 28 28
 211 211 211 211 212 212 212 212 146 146 146 146 146 98 98 98 59 59 59 59
 59 239 239 239 237 237 28 28 28 211 211 211 212 212 212 212 212 146 146 146
 146 146 146 167 59 59 59 59 59 59 220 220 220 220 237 237 237 237 211 211
 211 212 212 212 212 132 146 146 146 146 146 167 167 167 59 59 59 59 220 220
 220 220 220 220 237 237 128 128 128 128 128 212 212 132 132 132 132 146 146 167
 167 167 167 167 167 220 220 220 220 220 220 220 220 220 220 128 128 128 128 128
 128 132 132 132 132 132 132 132 167 167 167 167 167 167 220 220 220 220 220 220
 220 220 220 231 128 128 128 128 128 128 128 132 132 132 132 132 132 57 57 57
 167 167 167 220 220 220 220 220 220 220 220 231 231 231 231 81 81 81 81 81
 132 132 132 132 132 57 57 57 57 57 57 57 57 220 220 220 220 220 220 13
 231 231 231 231 81 81 81 81 81 187 187 187 187 187 57 57 57 57 57 57
 57 57 220 220 220 220 220 13 13 13 231 231 231 81 81 81 81 81 187 187
 187 187 187 187 182 182 182 182 182 182 38 38 20 20 220 13 13 13 13 13
 231 231 81 81 81 73 73 244 244 244 244 244 244 182 182 182 182 182 182 38
 38 20 20 13 13 13 13 13 13 231 81 81 81 81 73 73 244 244 244 244
 244 182 182 182 182 182 182 38 38 38 38 20 13 13 13 13 13 13 166 22
 22 22 22 73 73 244 244 244 244 244 244 182 182 182 182 182 38 38 38 38
 38 13 13 13 13 13 13 166 22 22 22 22 22 22 37 37 37 37 37 169
 182 182 182 182 38 38 38 38 38 38 13 13 13 13 13 13 166 22 22 22
 22 22 22 37 37 37 37 169 169 169 182 182 182 38 38 38 38 38 38 13
 13 224 224 184 184 184 22 22 22 22 22 22 37 37 169 169 169 169 169 169
 30 30 30 30 30 30 30 30 30 224 224 184 184 184 184 184 22 22 22 22
 141 141 91 91 91 91 91 91 91 30 30 30 30 30 30 30 30 30 224 184
 184 184 184 184 184 184 22 141 141 173 173 91 91 91 91 91 91 91 30 30
 30 30 30 30 30 30 30 130 184 184 184 184 184 184 184 199 213 173 173 173
 173 91 91 91 91 183 183 183 30 30 30 30 104 104 104 104 130 184 184 184
 184 184 184 199 199 213 213 173 173 173 173 183 183 183 183 183 183 41 30 30
 104 104 104 104 104 130 184 184 18 18 18 125 199 199 213 213 213 173 173 173
 183 183 183 183 183 41 41 41 41 163 104 104 104 104 130 18 18 18 18 18
 125 125 199 213 213 213 173 173 173 92 183 183 183 183 41 41 41 41 41 163
 104 104 104 104 18 18 18 18 18 125 125 125 125 213 213 213 173 92 92 92
 183 183 41 41 41 41 41 41 163 163 104 104 239 105 105 105 18 125 125 125
 125 125 125 125 123 123 123 92 92 92 92 41 41 41 41 41 41 163 163 163
 239 239 105 105 105 105 105 125 125 125 125 125 123 123 123 123 123 92 92 98
 98 98 41 41 41 41 222 239 239 239 239 239 105 105 105 105 125 125 125 125
 125 123 123 123 123 123 98 98 98 98 98 98 98 222 222 222 239 239 239 239
 239 105 105 105 105 125 125 125 125 123 123 123 123 123 123 98 98 98 98 98
 98 98 222 222 222 239 239 239 239 239 239 28 28 28 211 211 211 211 211 123
 123 123 123 123 98 98 98 98 98 98 98 222 222 222 239 239 239 239 239 239
 28 28 28 211 211 211 211 211 211 123 123 123 146 146 98 98 98 98 98 98
 222 222 222 239 239 239 239 239 28 28 28 28 211 211 211 211 211 212 212 212
 146 146 146 146 98 98 98 98 59 59 59 59 59 239 239 239 239 28 28 28
 28 211 211 211 211 212 212 212 212 146 146 146 146 146 98 98 98 59 59 59
 59 59 239 239 239 220 237 28 28 28 211 211 211 212 212 212 212 212 146 146
 146 146 146 146 98 59 59 59 59 59 59 220 220 220 220 237 237 237 211 211
 211 211 212 212 212 212 132 132 146 146 146 146 167 167 167 59 59 59 59 220
 220 220 220 220 220 186 186 186 128 128 128 128 212 132 132 132 132 132 132 146
 167 167 167 167 65 65 65 195 195 220 220 220 220 220 220 186 128 128 128 128
 128 128 132 132 132 132 132 132 132 167 167 167 167 65 65 65 195 195 220 220
 220 220 220 231 231 81 81 81 128 81 81 132 132 132 132 132 132 132 57 57
 57 57 65 65 65 195 220 220 220 220 220 220 231 231 231 231 81 81 81 81
 81 132 132 132 132 132 57 57 57 57 57 57 65 65 220 220 220 220 220 13
 13 231 231 231 231 81 81 81 81 81 187 187 187 187 187 57 57 57 57 57
 57 57 229 229 220 220 220 220 13 13 13 231 231 231 81 81 81 81 81 187
 187 187 187 187 187 182 182 182 182 182 182 229 229 229 20 13 13 13 13 13
 13 231 231 81 81 81 73 73 244 244 244 244 244 182 182 182 182 182 182 182
 38 38 38 38 13 13 13 13 13 13 231 231 81 81 73 73 73 244 244 244
 244 244 182 182 182 182 182 182 38 38 38 38 38 13 13 13 13 13 13 166
 166 166 22 73 73 73 244 244 244 244 244 182 182 182 182 182 182 38 38 38
 38 38 13 13 13 13 13 166 166 166 166 22 22 73 73 244 244 244 244 244
 244 182 182 182 182 38 38 38 38 38 38 13 13 13 13 13 166 166 166 166
 22 22 22 73 244 37 37 37 169 169 169 182 182 182 38 38 38 38 38 38
 13 13 226 226 62 62 166 166 166 166 22 22 141 141 37 169 169 169 169 169
 169 30 30 30 30 30 30 30 30 226 226 62 62 62 62 184 184 184 166 141
 141 141 141 91 91 91 91 91 91 91 30 30 30 30 30 30 30 30 130 226
 62 62 62 184 184 184 184 141 141 141 141 141 91 91 91 91 183 183 183 30
 30 30 30 30 30 30 130 130 130 184 184 184 184 184 184 184 125 141 141 141
 173 173 183 183 183 183 183 183 183 30 30 30 30 30 30 130 130 130 184 184
 184 184 184 184 125 125 213 213 213 173 173 183 183 183 183 183 183 183 41 163
 163 163 163 104 130 130 130 184 184 18 18 18 18 125 125 213 213 213 213 173
 183 183 183 183 183 183 183 41 163 163 163 163 163 130 130 130 184 18 18 18
 18 125 125 125 213 213 213 213 173 183 183 183 183 183 183 41 41 41 163 163
 163 163 130 130 130 184 18 18 18 18 125 125 125 125 213 213 213 213 183 183
 183 183 183 183 41 41 41 41 163 163 163 163 130 130 184 18 18 18 125 125
 125 125 125 125 125 125 123 123 183 183 183 183 98 41 41 41 41 163 163 163
 163 239 239 105 105 105 105 105 125 125 125 125 125 125 123 123 123 123 183 98
 98 98 42 41 41 41 163 163 239 239 239 239 239 105 105 105 105 125 125 125
 125 125 123 123 123 123 123 98 98 98 98 98 98 98 222 222 222 239 239 239
 239 239 105 105 105 105 105 125 125 125 125 123 123 123 123 123 98 98 98 98
 98 98 98 222 222 222 239 239 239 239 239 239 105 105 105 105 75 75 75 75
 123 123 123 123 98 98 98 98 98 98 98 98 222 222 222 239 239 239 239 239
 239 28 28 28 75 75 75 75 75 211 123 123 146 146 98 98 98 98 98 98
 98 222 222 222 239 239 239 239 239 239 28 28 28 75 75 75 75 75 212 212
 212 146 146 146 146 98 98 98 98 98 59 59 59 239 239 239 239 239 28 28
 28 28 75 75 75 75 212 212 212 212 146 146 146 146 146 98 98 98 98 59
 59 59 59 239 239 239 220 186 186 186 186 211 75 75 211 212 212 212 132 146
 146 146 146 146 146 98 98 59 59 59 59 59 220 220 239 220 186 186 186 186
 211 211 211 212 212 212 132 132 132 146 146 146 146 167 167 167 65 65 59 195
 220 220 220 220 220 186 186 186 186 186 128 128 128 212 132 132 124 124 124 132
 146 167 167 65 65 65 65 65 195 195 195 195 220 220 186 186 186 186 128 128
 128 128 128 132 132 132 124 124 124 132 236 236 65 65 65 65 65 195 195 195
 195 220 220 220 186 231 231 81 81 81 81 81 132 132 132 132 124 124 124 57
 236 236 65 65 65 65 195 195 195 195 220 96 96 96 231 231 81 81 81 81
 81 81 132 132 132 124 124 57 57 236 236 236 65 65 65 195 195 195 220 220
 13 13 231 231 231 231 81 81 81 81 81 187 187 187 187 187 57 57 57 236
 236 236 65 229 229 229 195 220 220 13 13 13 231 231 231 81 81 81 81 81
 187 187 187 187 187 187 182 182 182 182 182 229 229 229 229 229 13 13 13 13
 13 13 231 231 81 81 81 73 73 244 244 244 244 244 244 182 182 182 182 182
 229 229 229 229 229 13 13 13 13 13 13 166 166 81 81 73 73 73 244 244
 244 244 244 182 182 182 182 182 182 38 38 229 229 229 13 13 13 13 13 13
 166 166 166 166 73 73 73 244 244 244 244 244 244 182 89 182 182 182 38 38
 38 38 38 13 13 226 13 13 166 166 166 166 166 166 73 73 244 244 244 244
 244 244 89 89 89 182 38 38 38 38 38 38 226 226 226 226 226 166 166 166
 166 166 166 22 141 141 244 37 244 244 169 89 89 89 182 38 38 38 38 38
 38 226 226 226 226 62 62 166 166 166 166 141 141 141 141 141 145 169 169 169
 169 89 30 30 30 30 30 30 30 30 226 226 226 62 62 62 62 184 184 141
 141 141 141 141 141 91 183 183 183 183 183 30 30 30 30 30 30 30 30 130
 226 130 62 62 62 184 184 184 141 141 141 141 141 141 183 183 183 183 183 183
 30 30 30 30 30 30 30 130 130 130 130 184 184 184 184 184 184 141 141 141
 141 141 141 183 183 183 183 183 183 183 30 30 30 30 163 130 130 130 130 130
 184 184 184 184 184 184 141 141 141 141 141 141 183 183 183 183 183 183 183 163
 163 163 163 163 130 130 130 130 184 184 184 184 184 184 125 125 213 213 213 213
 173 183 183 183 183 183 183 183 163 163 163 163 163 163 130 130 130 184 184 18
 18 18 125 125 125 213 213 213 213 213 183 183 183 183 183 183 183 163 163 163
 163 163 163 130 130 130 184 184 18 18 18 125 125 125 125 213 213 213 213 183
 183 183 183 183 183 163 163 163 163 163 163 163 163 130 130 184 184 18 18 125
 125 125 125 125 125 125 125 138 138 183 183 183 183 42 42 42 163 163 163 163
 163 163 239 239 105 105 105 105 105 125 125 125 125 125 125 123 123 138 138 142
 142 42 42 42 42 42 163 163 163 163 239 239 239 239 105 105 105 105 125 125
 125 125 125 125 123 123 123 142 142 98 98 42 42 42 42 163 163 163 239 239
 239 239 239 105 105 105 105 105 125 125 125 125 125 123 123 123 142 98 98 98
 98 98 98 98 98 222 222 239 239 239 239 239 239 105 105 105 105 75 75 75
 75 123 123 123 51 142 98 98 98 98 98 98 98 98 222 222 239 239 239 239
 239 204 204 28 28 75 75 75 75 75 75 123 51 51 51 98 98 98 98 98
 98 98 98 222 218 239 239 239 239 204 204 186 186 186 75 75 75 75 75 75
 212 51 51 146 146 146 98 98 98 98 98 98 218 218 218 239 239 239 204 186
 186 186 186 75 75 75 75 75 212 212 124 146 146 146 146 146 98 98 98 98
 59 218 218 218 218 239 239 186 186 186 186 186 186 75 75 75 75 212 124 124
 124 146 146 146 146 146 98 65 65 65 59 218 218 218 218 239 186 186 186 186
 186 186 211 211 212 212 212 124 124 124 124 146 146 146 167 65 65 65 65 65
 195 195 220 220 220 186 186 186 186 186 186 156 156 156 156 124 124 124 124 124
 124 124 124 65 65 65 65 65 65 195 195 195 195 195 186 186 186 186 186 156
 156 156 156 156 124 124 124 124 124 124 124 236 236 65 65 65 65 65 195 195
 195 195 195 96 96 186 186 186 156 156 156 156 81 124 124 124 124 124 124 124
 236 236 236 65 65 65 65 195 195 195 195 195 96 96 96 96 231 81 81 81
 81 81 81 124 124 124 124 124 124 236 236 236 236 236 65 65 195 195 195 195
 195 96 96 96 96 231 81 81 81 81 81 81 187 187 124 124 124 124 236 236
 236 236 236 229 229 229 229 195 96 96 96 96 96 96 231 81 81 81 81 81
 81 187 187 187 187 187 89 89 89 89 89 229 229 229 229 229 229 96 96 13
 13 13 13 231 81 81 81 81 81 81 244 244 244 244 244 244 89 89 89 89
 89 229 229 229 229 229 229 96 13 13 13 13 166 166 166 81 81 73 73 244
 244 244 244 244 244 89 89 89 89 89 229 229 229 229 229 226 226 226 226 13
 166 166 166 166 166 73 73 73 145 145 145 145 145 89 89 89 89 89 89 229
 229 229 229 229 226 226 226 226 226 166 166 166 166 166 166 73 145 145 145 145
 145 145 145 89 89 89 89 38 38 38 38 229 229 226 226 226 226 226 166 166
 166 166 166 166 166 141 145 145 145 145 145 210 89 89 89 89 30 38 38 38
 38 38 226 226 226 226 62 62 62 166 166 166 141 141 141 141 141 145 145 210
 210 210 210 210 30 30 30 30 30 30 226 226 226 226 62 62 62 62 62 184
 141 141 141 141 141 141 141 183 183 183 183 210 210 30 30 30 30 30 30 130
 226 226 130 62 62 62 62 184 184 141 141 141 141 141 141 141 183 183 183 183
 183 33 200 30 30 30 30 130 130 130 130 130 184 184 184 184 184 184 141 141
 141 141 141 141 183 183 183 183 183 183 33 33 163 163 163 163 130 130 130 130
 130 184 184 184 184 184 184 141 141 141 141 141 141 183 183 183 183 183 183 33
 33 163 163 163 163 130 130 130 130 130 184 184 184 184 184 125 125 125 152 141
 141 141 183 183 183 183 183 183 33 209 163 163 163 163 163 130 130 130 184 184
 184 184 184 125 125 125 125 152 152 152 138 183 183 183 183 183 183 209 209 163
 163 163 163 163 130 130 130 184 184 184 184 125 125 125 125 125 125 152 138 138
 138 138 183 183 183 42 209 209 163 163 163 163 163 163 130 130 240 240 240 18
 125 125 125 125 125 125 125 138 138 138 138 142 142 42 42 42 42 163 163 163
 163 163 163 239 130 240 240 240 105 125 125 125 125 125 125 125 138 138 138 138
 142 142 42 42 42 42 42 163 163 163 163 239 239 239 240 240 240 105 105 125
 125 125 125 125 125 138 138 142 142 142 142 42 42 42 42 42 2 2 163 239
 239 239 239 240 240 240 105 105 125 125 125 125 125 125 123 142 142 142 142 142
 42 42 42 42 42 2 2 239 239 239 239 239 204 204 204 105 105 125 75 75
 75 75 75 51 51 51 142 142 98 98 98 98 98 98 98 218 218 239 239 239
 239 204 204 204 204 186 75 75 75 75 75 75 51 51 51 51 51 84 84 98
 98 98 98 98 218 218 218 218 239 204 204 204 186 186 186 75 75 75 75 75
 75 51 51 51 51 51 84 84 84 98 98 98 218 218 218 218 218 218 204 204
 186 186 186 186 186 75 75 75 75 75 51 51 51 51 51 84 84 84 98 98
 98 218 218 218 218 218 218 204 186 186 186 186 186 186 75 75 75 75 124 124
 124 124 124 146 84 84 84 98 65 65 218 218 218 218 218 218 204 186 186 186
 186 186 186 156 156 156 156 124 124 124 124 124 146 146 146 84 65 65 65 65
 218 195 195 218 218 220 186 186 186 186 186 156 156 156 156 156 124 124 124 124
 124 124 124 124 65 65 65 65 65 50 50 50 50 50 50 186 186 186 186 186
 156 156 156 156 156 156 124 124 124 124 124 124 236 236 65 65 65 65 50 50
 50 50 50 50 96 96 186 186 186 156 156 156 156 156 156 124 124 124 124 124
 124 236 236 236 65 65 65 50 50 50 50 50 50 96 96 96 96 36 81 64
 64 156 156 156 124 124 124 124 124 124 236 236 236 236 236 65 50 50 50 50
 50 96 96 96 96 96 231 81 64 64 64 81 81 124 124 124 124 124 236 236
 236 236 236 236 229 229 229 229 229 96 96 96 96 96 96 231 81 64 81 81
 81 81 187 187 187 187 187 89 89 89 89 89 229 229 229 229 229 229 229 96
 96 96 96 96 231 81 81 81 81 81 81 244 244 244 244 244 89 89 89 89
 89 229 229 229 229 229 229 229 96 226 226 96 96 166 166 166 81 81 73 73
 145 145 145 145 145 89 89 89 89 89 229 229 229 229 229 229 226 226 226 226
 226 226 166 166 166 166 166 73 145 145 145 145 145 145 145 89 89 89 89 229
 229 229 229 229 229 226 226 226 226 226 226 166 166 166 166 108 108 145 145 145
 145 145 145 210 210 89 89 89 229 229 229 229 229 229 226 226 226 226 226 3
 166 166 166 108 108 108 141 145 145 145 145 145 210 210 210 210 89 229 229 229
 229 229 229 226 226 226 226 226 3 62 108 108 108 108 141 141 141 145 145 145
 210 210 210 210 210 210 30 30 30 30 229 226 226 226 226 226 62 62 62 62
 108 108 141 141 141 141 141 141 145 210 210 210 210 210 200 200 200 30 30 161
 161 226 226 130 62 62 62 62 184 184 141 141 141 141 141 141 141 183 183 183
 210 210 33 200 200 200 200 161 161 130 130 130 130 184 184 184 184 184 184 141
 141 141 141 141 141 141 183 183 183 183 33 33 33 200 163 163 163 130 130 130
 130 130 184 184 184 184 184 184 141 141 141 141 141 141 141 183 183 183 183 33
 33 33 209 163 163 163 163 130 130 130 130 184 184 184 184 184 184 141 152 152
 152 141 141 183 183 183 183 183 33 33 209 209 163 163 163 163 130 130 130 184
 184 184 184 184 184 125 125 152 152 152 152 138 138 183 183 183 183 33 209 209
 209 163 163 163 163 130 130 130 184 184 184 184 184 125 125 125 152 152 152 138
 138 138 138 138 183 63 209 209 78 78 163 163 163 163 163 130 130 240 240 240
 184 125 125 125 125 125 152 152 138 138 138 138 142 142 142 42 42 209 78 163
 163 163 163 163 240 240 240 240 240 240 125 125 125 125 125 125 125 138 138 138
 138 142 142 142 42 42 42 2 2 163 163 163 163 240 240 240 240 240 240 105
 125 125 125 125 125 125 138 138 142 142 142 142 142 42 42 42 2 2 2 163
 239 239 239 240 240 240 240 240 105 125 245 245 245 245 245 138 142 142 142 142
 142 67 67 67 67 2 2 2 218 239 239 239 240 204 204 204 204 105 245 245
 245 245 245 51 51 51 51 142 142 142 67 67 67 67 67 218 218 218 218 218
 218 204 204 204 204 204 186 245 245 245 245 245 51 51 51 51 51 51 84 84
 67 67 67 67 218 218 218 218 218 218 204 204 204 204 186 186 186 75 75 75
 75 51 51 51 51 51 51 84 84 84 67 67 67 218 218 218 218 218 218 204
 204 186 186 186 186 186 75 75 75 75 51 51 51 51 51 51 84 84 84 84
 67 67 218 218 218 218 218 218 204 186 186 186 186 186 186 186 75 156 156 51
 51 51 51 51 51 84 84 84 84 65 65 218 218 218 218 218 218 204 186 186
 186 186 186 186 156 156 156 156 124 124 124 124 124 124 84 84 84 65 65 65
 65 50 50 50 50 50 50 186 186 186 186 186 156 156 156 156 156 156 124 124
 124 6 6 6 6 65 65 65 65 65 50 50 50 50 50 50 186 186 186 186
 186 156 156 156 156 156 156 124 124 124 124 6 6 236 236 65 65 65 65 50
 50 50 50 50 50 96 96 36 36 36 156 156 156 156 156 156 124 124 124 124
 124 124 236 236 236 60 60 60 50 50 50 50 50 50 96 96 96 36 36 64
 64 64 64 156 156 124 124 124 124 124 124 236 236 236 60 60 60 60 50 50
 50 50 96 96 96 96 96 36 64 64 64 64 64 64 124 124 124 124 124 236
 236 236 236 60 60 60 229 229 229 229 50 96 96 96 96 96 36 64 64 64
 64 81 81 187 187 187 187 187 89 89 89 89 60 229 229 229 229 229 229 229
 96 96 96 96 96 96 81 81 64 81 243 243 145 145 145 145 145 89 89 89
 89 89 229 229 229 229 229 68 68 96 226 96 96 96 96 166 166 81 243 243
 243 145 145 145 145 145 133 89 89 89 89 229 229 229 229 229 68 68 226 226
 226 226 226 166 108 108 108 243 243 243 145 145 145 145 145 133 89 89 89 89
 229 229 229 229 229 68 226 226 226 226 226 3 3 108 108 108 243 243 243 145
 145 145 145 133 133 210 210 89 89 229 229 229 229 77 77 226 226 226 226 3
 3 3 108 108 108 108 108 243 145 145 145 145 133 210 210 210 210 210 229 229
 229 77 77 77 226 226 226 226 3 3 3 108 108 108 108 108 141 141 145 145
 145 210 210 210 210 210 200 200 200 200 77 77 77 226 226 226 226 3 62 62
 108 108 108 141 141 141 141 141 141 145 210 210 210 210 210 200 200 200 200 161
 161 161 161 226 226 62 62 62 184 184 108 141 141 141 141 141 141 141 141 210
 210 210 210 200 200 200 200 200 161 161 161 161 130 205 205 184 184 184 184 184
 141 141 141 141 141 141 141 183 183 183 33 33 33 33 200 200 200 161 161 161
 130 130 130 184 184 184 184 184 184 141 141 141 141 141 141 141 183 183 63 33
 33 33 33 209 209 163 163 161 130 130 130 130 184 184 184 184 184 184 152 152
 152 152 152 141 138 183 63 63 63 33 33 209 209 209 163 163 163 130 130 130
 184 184 184 184 184 184 125 152 152 152 152 152 138 138 138 63 63 63 63 209
 209 78 209 163 163 163 130 130 130 184 184 184 184 184 125 125 152 152 152 152
 138 138 138 138 138 63 63 63 209 78 78 78 163 163 163 163 130 130 240 240
 240 240 125 125 125 125 152 152 152 138 138 138 138 142 142 142 63 11 11 11
 11 163 163 163 163 240 240 240 240 240 240 240 125 245 125 245 125 152 138 138
 138 142 142 142 142 67 67 2 2 2 2 163 163 240 240 240 240 240 240 240
 240 245 245 245 245 245 245 138 138 142 142 142 142 142 67 67 2 2 2 2
 2 2 239 240 240 240 240 240 240 245 245 245 245 245 245 245 138 138 142 142
 142 142 67 67 67 67 2 2 2 2 218 218 240 240 204 204 240 240 245 245
 245 245 245 245 245 51 51 51 142 142 142 67 67 67 67 67 67 218 218 218
 218 218 204 204 204 204 204 245 245 245 245 245 245 245 51 51 51 51 51 84
 84 67 67 67 67 218 218 218 218 218 218 204 204 204 186 186 186 245 245 245
 245 245 51 51 51 51 51 51 84 84 84 67 67 67 218 218 218 218 218 218
 204 204 186 186 186 186 186 245 245 245 87 51 51 51 51 51 51 84 84 84
 84 49 49 49 218 218 218 218 218 204 186 186 186 186 186 186 186 156 156 87
 87 51 51 51 6 6 84 84 84 49 49 49 49 218 218 218 218 218 204 186
 186 186 186 186 186 156 156 156 156 124 124 124 6 6 6 6 6 84 49 49
 49 49 50 50 50 50 50 50 186 186 186 186 186 156 156 156 156 156 156 124
 6 6 6 6 6 6 6 49 49 88 88 50 50 50 50 50 50 36 36 36
 36 36 156 156 156 156 156 156 124 6 6 6 6 6 6 60 60 60 88 88
 50 50 50 50 50 50 36 36 36 36 36 156 156 156 156 156 156 124 124 246
 246 246 246 246 60 60 60 60 60 60 50 50 50 50 50 96 96 36 36 36
 36 64 64 64 64 64 124 124 246 246 246 246 236 236 60 60 60 60 60 50
 50 50 50 96 96 96 96 36 36 36 64 64 64 64 64 64 124 246 246 246
 246 176 60 60 60 60 60 60 229 229 50 96 96 96 96 96 96 36 36 64
 64 64 64 64 64 145 145 145 133 176 176 60 60 60 60 229 229 229 68 68
 68 96 96 96 96 96 36 36 64 64 64 243 243 145 145 145 145 133 133 176
 89 89 89 229 229 229 229 68 68 68 96 96 96 96 96 96 108 108 64 243
 243 243 145 145 145 145 133 133 133 89 89 247 229 229 229 229 68 68 68 226
 226 226 226 226 108 108 108 108 243 243 243 145 145 145 145 133 133 133 89 247
 247 229 229 229 229 68 68 77 226 226 226 3 3 3 108 108 108 243 243 243
 145 145 145 145 133 133 133 210 247 247 247 229 229 77 77 77 77 226 226 226
 3 3 3 108 108 108 108 243 243 145 145 145 133 133 133 210 210 210 247 247
 229 77 77 77 77 77 226 226 226 3 3 108 108 108 108 108 108 108 141 145
 145 133 133 210 210 210 200 200 200 200 77 77 77 77 77 226 205 205 205 3
 108 108 108 108 108 108 141 141 141 141 133 210 210 210 210 200 200 200 200 200
 161 161 161 161 226 205 205 205 205 184 108 108 108 141 141 141 141 141 141 141
 210 210 210 200 200 200 200 200 200 161 161 161 161 161 205 205 205 184 184 184
 108 141 141 141 141 141 141 141 183 63 63 33 33 33 200 200 200 200 161 161
 161 161 130 205 205 184 184 184 184 184 141 141 141 141 141 141 141 63 63 63
 63 33 33 33 200 200 200 161 161 161 161 130 205 184 184 184 184 184 184 152
 152 152 152 152 141 138 63 63 63 63 63 33 209 209 209 209 163 163 130 130
 130 184 184 184 184 184 184 152 152 152 152 152 152 138 138 138 63 63 63 63
 63 78 78 78 209 163 163 130 130 130 184 184 184 184 184 230 152 152 152 152
 152 138 138 138 138 63 63 63 63 63 11 11 11 11 163 163 163 130 130 240
 240 240 240 230 230 245 152 152 152 152 138 138 138 138 142 63 63 63 11 11
 11 11 11 163 163 8 8 240 240 240 240 240 240 245 245 245 245 170 170 138
 138 138 142 142 142 142 67 11 11 11 11 11 11 8 8 8 240 240 240 240
 240 245 245 245 245 245 245 245 138 138 142 142 142 142 142 67 67 2 2 2
 2 2 8 8 240 240 240 240 240 240 245 245 245 245 245 245 245 245 142 142
 142 142 142 67 67 67 67 2 2 2 218 218 218 218 240 204 240 240 240 245
 245 245 245 245 245 245 51 51 51 142 142 142 67 67 67 67 67 67 218 218
 218 218 218 204 204 204 204 245 245 245 245 245 245 245 245 51 51 51 51 51
 84 84 67 67 67 67 218 218 218 218 218 218 204 204 204 186 186 245 245 245
 245 245 245 87 51 51 51 51 51 84 84 84 67 67 49 218 218 218 218 218
 218 218 204 186 186 186 186 186 245 245 87 87 87 51 51 51 51 51 84 84
 84 49 49 49 49 218 218 218 218 218 218 186 186 186 186 186 186 87 87 87
 87 87 87 6 6 6 6 6 84 84 49 49 49 49 49 218 218 218 218 218
 186 186 186 186 186 186 156 156 87 87 87 87 6 6 6 6 6 6 6 49
 49 49 49 49 50 50 50 50 50 186 186 186 186 186 156 156 156 87 87 87
 87 6 6 6 6 6 6 6 88 88 88 88 88 50 50 50 50 50 36 36
 36 36 36 36 156 156 156 87 87 246 246 246 246 246 6 6 60 60 88 88
 88 88 50 50 50 50 50 36 36 36 36 36 36 156 156 156 156 156 246 246
 246 246 246 246 246 60 60 60 60 60 88 50 50 50 50 50 96 36 36 36
 36 36 64 64 64 64 64 246 246 246 246 246 246 246 60 60 60 60 60 60
 50 50 50 50 83 96 36 36 36 36 36 64 64 64 64 64 137 246 246 246
 246 246 176 60 60 60 60 60 60 68 68 68 68 96 96 96 36 36 36 36
 64 64 64 64 64 137 137 137 137 176 176 176 176 60 60 60 60 229 68 68
 68 68 96 96 96 96 36 36 36 64 64 64 243 243 243 145 145 133 176 176
 176 176 176 60 60 229 229 68 68 68 68 96 96 96 96 36 36 108 108 243
 243 243 243 243 145 145 133 133 133 176 176 176 247 247 229 229 68 68 68 68
 226 226 226 226 3 108 108 108 243 243 243 243 243 145 145 133 133 133 133 176
 247 247 247 247 229 77 77 77 77 226 226 226 3 3 108 108 108 108 243 243