# vtk DataFile Version 2.0
Data set from ImportExport Version 6.5.171.b0b162591
ASCII

DATASET RECTILINEAR_GRID
DIMENSIONS 30 30 30
X_COORDINATES 30 float
-1.250000 1.250000 3.750000 6.250000 8.750000 11.250000 13.750000 16.250000 18.750000 21.250000 23.750000 26.250000 28.750000 31.250000 33.750000 36.250000 38.750000 41.250000 43.750000 46.250000 48.750000 
51.250000 53.750000 56.250000 58.750000 61.250000 63.750000 66.250000 68.750000 71.250000 
Y_COORDINATES 30 float
-1.250000 1.250000 3.750000 6.250000 8.750000 11.250000 13.750000 16.250000 18.750000 21.250000 23.750000 26.250000 28.750000 31.250000 33.750000 36.250000 38.750000 41.250000 43.750000 46.250000 48.750000 
51.250000 53.750000 56.250000 58.750000 61.250000 63.750000 66.250000 68.750000 71.250000 
Z_COORDINATES 30 float
-1.250000 1.250000 3.750000 6.250000 8.750000 11.250000 13.750000 16.250000 18.750000 21.250000 23.750000 26.250000 28.750000 31.250000 33.750000 36.250000 38.750000 41.250000 43.750000 46.250000 48.750000 
51.250000 53.750000 56.250000 58.750000 61.250000 63.750000 66.250000 68.750000 71.250000 
CELL_DATA 24389
SCALARS FeatureIds int 1
LOOKUP_TABLE default
 108 108 108 108 108 147 147 147 147 185 185 220 153 153 153 80 80 80 80 80
 202 202 202 202 202 65 65 108 108 108 108 108 108 108 147 147 147 147 147 147
 220 69 69 80 80 80 80 80 80 202 202 202 202 88 88 65 108 108 108 108
 108 108 108 147 147 147 147 147 147 220 69 69 69 69 80 80 80 80 202 202
 202 88 88 88 215 108 108 108 108 108 108 147 147 147 147 147 243 243 243 69
 69 69 69 69 80 80 80 202 207 207 207 207 215 215 215 215 215 108 108 108
 147 147 147 147 243 243 243 243 243 69 69 69 69 69 80 80 207 207 207 207
 207 215 215 215 215 215 215 108 108 147 147 147 147 243 243 243 243 243 169 169
 169 169 169 169 169 223 28 28 28 28 215 215 215 215 215 215 215 239 239 147
 147 243 243 243 243 243 243 169 169 169 169 169 169 169 223 28 28 28 28 215
 215 215 215 215 215 76 239 239 239 35 35 35 35 35 243 216 216 169 169 169
 169 169 169 223 28 28 28 28 28 215 215 215 76 76 76 239 239 239 239 57
 57 57 57 57 216 216 216 169 169 169 169 169 223 223 28 28 28 53 215 215
 215 76 76 76 239 239 239 239 57 57 57 57 57 216 216 216 169 169 169 169
 169 223 223 223 28 53 53 53 215 215 76 76 76 239 239 239 239 239 57 57
 57 57 216 216 216 169 169 169 169 223 223 223 223 223 39 39 39 39 39 76
 76 76 239 239 239 239 239 57 57 57 98 98 98 98 98 169 169 46 46 46
 223 223 223 39 39 39 39 39 76 76 76 224 239 239 239 239 239 57 57 160
 98 98 98 98 169 46 46 46 46 46 223 39 39 39 39 39 39 76 76 224
 224 224 239 239 239 239 240 160 160 160 98 98 98 46 46 46 46 46 46 78
 78 78 78 39 70 70 224 224 224 224 224 239 239 239 240 240 240 160 160 98
 98 46 46 46 46 46 46 46 78 78 78 78 70 70 70 224 224 224 224 224
 166 166 166 240 240 240 160 160 98 98 46 46 46 46 46 46 78 78 78 78
 78 70 70 70 224 224 224 224 166 166 166 166 166 240 240 240 55 110 110 144
 144 46 46 46 241 241 78 78 78 78 70 70 70 156 224 224 224 166 166 166
 166 166 166 55 55 55 55 144 144 144 144 46 241 241 241 78 78 236 78 70
 70 70 156 156 166 166 166 166 166 166 166 166 55 55 55 55 144 144 144 144
 96 96 241 241 78 78 236 78 70 70 70 156 156 25 25 25 25 102 102 102
 102 55 55 55 55 55 144 144 144 96 96 49 49 230 230 230 230 156 156 156
 156 156 25 25 25 25 102 102 102 102 55 55 55 33 33 33 144 144 131 131
 230 230 230 230 230 230 156 156 156 156 156 25 25 25 25 25 102 102 102 189
 189 189 33 33 33 33 131 131 131 131 131 230 230 230 230 156 156 156 156 156
 25 25 25 25 25 102 102 102 189 189 189 189 33 33 33 131 131 131 131 131
 230 230 230 230 156 156 156 156 156 156 25 25 25 25 102 102 189 189 189 189
 189 33 33 153 131 131 131 131 131 131 230 230 139 156 156 156 156 156 196 196
 25 25 25 84 84 189 189 189 189 189 189 153 153 153 131 131 131 131 131 14
 139 139 139 156 156 156 156 196 196 196 196 84 84 84 84 189 189 189 189 153
 153 153 153 131 131 131 131 14 14 139 139 139 139 156 108 108 196 196 196 196
 84 84 84 84 84 189 189 153 153 153 153 153 153 131 14 14 14 14 139 139
 139 139 139 108 108 108 108 196 196 84 84 84 84 84 84 153 153 153 153 153
 153 153 80 14 14 14 14 14 139 139 139 139 108 108 108 108 108 196 84 84
 84 84 84 84 153 153 153 153 153 80 80 80 80 14 14 14 14 14 139 65
 65 108 108 108 108 147 147 147 185 185 185 185 220 220 80 80 80 80 80 80
 80 80 14 14 14 207 65 65 65 65 108 108 108 108 147 147 147 147 147 147
 220 220 220 80 80 80 80 80 80 80 80 207 207 207 207 207 65 65 65 108
 108 108 108 147 147 147 147 147 147 220 220 220 69 69 80 80 80 80 80 80
 207 207 207 207 207 65 65 65 215 108 108 108 147 147 147 147 147 243 243 220
 220 69 69 69 80 80 80 80 207 207 207 207 207 207 215 215 215 215 215 108
 147 147 147 147 147 147 243 243 243 220 220 69 69 169 169 169 80 207 207 207
 207 207 215 215 215 215 215 215 215 147 147 147 147 147 243 243 243 243 220 169
 169 169 169 169 169 169 223 28 28 28 28 215 215 215 215 215 215 215 239 239
 147 147 243 243 243 243 243 243 169 169 169 169 169 169 169 223 28 28 28 28
 215 215 215 215 215 215 239 239 239 239 57 57 57 57 243 243 243 216 169 169
 169 169 169 169 223 223 28 28 28 28 215 215 215 215 215 239 239 239 239 239
 57 57 57 57 57 216 216 169 169 169 169 169 223 223 223 28 28 28 28 215
 215 215 76 76 239 239 239 239 239 57 57 57 57 57 216 216 169 169 169 169
 169 223 223 223 223 223 28 28 53 215 215 76 76 239 239 239 239 239 239 57
 57 57 57 216 216 169 169 169 169 169 223 223 223 223 223 223 39 39 39 150
 76 76 76 239 239 239 239 239 57 57 57 57 98 98 98 169 169 169 46 46
 223 223 223 223 223 39 39 39 150 76 76 224 224 239 239 239 239 239 57 57
 160 98 98 98 98 169 46 46 46 46 46 223 223 39 39 39 39 150 224 224
 224 224 224 239 239 239 239 122 122 160 160 98 98 46 46 46 46 46 46 46
 78 78 78 78 39 70 70 224 224 224 224 224 239 239 239 240 240 240 160 160
 98 152 46 46 46 46 46 46 241 78 78 78 78 70 70 70 224 224 224 224
 224 166 166 166 166 166 240 160 160 110 110 46 46 46 46 46 241 241 78 78
 78 78 70 70 70 224 224 224 224 224 166 166 166 166 166 240 55 55 110 110
 144 144 46 46 241 241 241 78 78 78 78 70 70 70 156 224 224 224 166 166
 166 166 166 166 55 55 55 55 144 144 144 144 241 241 241 241 241 78 78 78
 70 70 70 156 156 224 166 166 166 166 166 166 166 55 55 55 55 144 144 144
 144 96 96 241 241 241 241 78 78 70 156 156 156 156 156 25 25 102 102 102
 102 102 55 55 55 55 144 144 144 144 96 96 49 49 49 230 230 230 156 156
 156 156 156 156 25 25 102 102 102 102 102 55 55 55 55 144 144 144 144 96
 96 49 49 230 230 230 230 156 156 156 156 156 156 25 25 102 102 102 102 102
 189 189 189 189 33 144 144 144 96 131 230 230 230 230 230 230 156 156 156 156
 156 156 196 196 102 102 102 102 102 189 189 189 189 33 33 33 131 131 131 131
 230 230 230 230 230 156 156 156 156 156 196 196 196 196 102 102 102 189 189 189
 189 189 189 189 153 131 131 131 131 131 131 230 230 154 156 156 156 156 156 196
 196 196 196 196 196 84 189 189 189 189 189 189 153 153 153 131 131 14 14 14
 14 14 139 154 154 156 156 196 196 196 196 196 196 185 185 185 189 189 189 189
 153 153 153 153 131 131 14 14 14 14 14 139 139 154 156 108 196 196 196 196
 196 196 185 185 185 185 189 189 153 153 153 153 153 153 14 14 14 14 14 14
 14 139 139 156 108 108 196 196 196 196 185 185 185 185 185 185 153 153 153 153
 153 80 80 14 14 14 14 14 14 14 139 65 65 108 108 108 108 196 196 185
 185 185 185 185 185 153 153 153 80 80 80 80 80 14 14 14 14 14 14 65
 65 65 65 65 170 170 170 170 185 185 185 185 185 185 220 220 80 80 80 80
 80 80 80 14 14 14 207 65 65 65 65 65 108 170 170 170 147 147 147 147
 220 220 220 220 220 80 80 80 80 80 80 80 207 207 207 207 65 65 65 65
 65 108 170 170 147 147 147 147 147 220 220 220 220 220 69 80 80 80 80 80
 207 207 207 207 207 207 65 65 65 215 108 170 170 147 147 147 147 147 243 220
 220 220 220 69 80 80 80 80 80 207 207 207 207 207 207 215 215 215 215 215
 215 147 147 147 147 147 243 243 243 220 220 220 169 169 169 169 169 80 207 207
 207 207 207 207 215 215 215 215 215 215 81 147 147 147 147 243 243 243 243 220
 220 169 169 169 169 169 169 207 207 207 207 207 215 215 215 215 215 215 215 81
 81 81 147 243 243 243 243 243 220 169 169 169 169 169 169 169 223 223 28 28
 28 215 215 215 215 215 215 239 239 239 239 112 112 112 112 112 243 243 169 169
 169 169 169 169 223 223 223 28 28 28 28 215 215 215 215 215 239 239 239 239
 239 112 112 112 112 57 57 169 169 169 169 169 169 223 223 223 223 28 28 28
 215 215 215 150 150 239 239 239 239 239 112 112 112 57 57 57 169 169 169 169
 169 169 223 223 223 223 223 223 28 215 215 150 150 76 239 239 239 239 239 239
 112 112 57 57 57 169 169 169 169 169 169 223 223 223 223 223 223 223 39 150
 150 150 76 239 239 239 239 239 239 112 112 112 57 57 98 169 169 169 169 167
 167 223 223 223 223 223 223 39 150 150 150 224 224 224 239 239 239 239 122 122
 122 57 57 98 152 169 169 167 167 46 46 46 223 223 223 223 39 150 150 224
 224 224 224 224 239 239 122 122 122 122 122 160 152 152 152 46 46 46 46 46
 46 241 241 78 78 78 219 150 224 224 224 224 224 239 239 122 122 122 122 122
 152 152 152 152 46 46 46 46 46 241 241 78 78 78 78 70 70 224 224 224
 224 224 166 166 166 122 122 122 122 110 110 110 152 152 46 46 46 241 241 241
 78 78 78 78 70 70 224 224 224 224 224 166 166 166 166 166 166 110 110 110
 110 110 144 46 46 241 241 241 241 241 78 78 78 70 70 19 19 224 224 166
 166 166 166 166 166 55 55 110 110 110 144 144 144 241 241 241 241 241 241 241
 78 78 70 70 156 19 19 166 166 166 166 166 166 166 55 55 55 110 144 144
 144 144 96 96 241 241 241 241 241 78 78 156 156 156 156 19 102 102 102 102
 102 102 102 55 55 55 144 144 144 144 144 96 96 49 49 49 155 155 155 156
 156 156 156 156 156 102 102 102 102 102 102 102 55 55 55 144 144 144 144 144
 96 96 49 49 49 155 155 155 156 156 156 156 156 156 196 196 102 102 102 102
 102 189 189 189 189 144 144 144 144 96 96 49 49 155 155 155 155 156 156 156
 156 156 196 196 196 196 102 102 102 102 189 189 189 189 189 144 144 144 96 96
 49 155 155 155 155 155 154 156 156 156 156 196 196 196 196 196 102 102 189 189
 189 189 189 189 144 144 144 131 131 131 131 155 155 155 154 154 154 156 154 154
 196 196 196 196 196 196 102 189 189 189 189 189 189 189 245 245 245 14 14 14
 14 14 14 154 154 154 154 154 196 196 196 196 196 196 196 185 185 189 189 189
 189 189 153 245 245 245 14 14 14 14 14 14 14 181 154 154 154 196 196 196
 196 196 196 185 185 185 185 185 189 189 153 153 245 245 245 14 14 14 14 14
 14 14 181 154 154 108 196 196 196 196 196 196 185 185 185 185 185 185 153 153
 153 80 80 80 14 14 14 14 14 14 14 14 65 65 108 108 196 196 196 196
 185 185 185 185 185 185 185 153 80 80 80 80 80 80 14 14 14 14 14 14
 65 65 65 65 170 170 170 170 170 170 185 185 185 185 185 220 220 80 80 80
 80 80 80 80 14 14 14 207 65 65 65 65 65 170 170 170 170 170 147 147
 147 220 220 220 220 220 80 80 80 80 80 80 207 207 207 207 207 65 65 65
 65 65 170 170 170 170 170 147 147 147 220 220 220 220 220 220 80 80 80 80
 80 207 207 207 207 207 207 65 65 65 65 170 170 170 170 147 147 147 147 220
 220 220 220 220 220 80 80 80 80 80 207 207 207 143 207 207 65 65 65 215
 215 170 81 81 81 182 147 243 243 220 220 220 220 141 169 169 169 80 207 207
 207 207 207 207 207 215 215 215 215 215 81 81 81 81 81 182 243 243 243 220
 220 141 141 141 169 169 169 169 207 207 207 207 207 207 215 215 215 215 215 81
 81 81 81 81 243 243 243 243 243 141 141 141 141 169 169 169 223 223 223 223
 28 28 215 215 215 215 215 215 134 81 81 81 81 112 112 112 112 112 141 141
 141 141 169 169 169 223 223 223 223 223 28 28 215 215 215 150 150 150 239 239
 239 239 112 112 112 112 112 141 141 141 141 169 169 169 223 223 223 223 223 223
 28 215 215 215 150 150 150 239 239 239 239 112 112 112 112 112 112 141 141 141
 169 169 169 223 223 223 223 223 223 223 215 150 150 150 150 150 239 239 239 239
 112 112 112 112 112 112 141 141 169 169 169 223 223 223 223 223 223 223 223 150
 150 150 150 150 150 239 239 239 239 239 112 112 112 112 112 141 141 169 169 167
 167 167 223 223 223 223 223 223 150 150 150 150 150 150 239 239 239 239 122 122
 122 122 112 112 152 152 152 167 167 167 167 167 223 223 223 223 223 219 150 150
 150 224 224 224 239 239 239 122 122 122 122 122 152 152 152 152 152 167 167 167
 167 241 241 241 241 241 219 219 150 150 224 224 224 224 239 122 122 122 122 122
 122 152 152 152 152 152 167 167 167 167 241 241 241 241 241 219 219 219 224 224
 224 224 224 166 122 122 122 122 122 122 110 110 152 152 152 152 167 167 241 241
 241 241 241 241 241 219 219 19 19 224 224 224 166 166 166 166 166 47 110 110
 110 110 152 152 152 167 241 241 241 241 241 241 241 241 241 19 19 19 19 19
 166 166 166 166 166 47 47 110 110 110 110 144 144 144 96 96 241 241 241 241
 241 241 241 241 19 19 19 19 19 149 166 166 166 166 47 47 55 110 110 144
 144 144 144 96 96 96 241 241 241 241 241 107 156 156 156 19 19 19 149 149
 102 102 102 102 55 55 55 144 144 144 144 144 96 96 96 49 49 155 155 107
 107 156 156 156 156 19 149 149 149 102 102 102 102 55 55 55 144 144 144 144
 144 96 96 49 49 49 155 155 107 107 156 156 156 156 196 196 196 196 102 102
 102 102 189 189 189 144 144 144 144 144 96 96 49 49 155 155 155 107 154 154
 156 156 156 196 196 196 196 196 102 102 102 189 189 189 189 144 144 144 144 96
 96 49 155 155 155 155 107 154 154 154 154 154 196 196 196 196 196 196 102 189
 189 189 189 189 189 144 144 144 96 82 82 155 155 155 155 154 154 154 154 154
 196 196 196 196 196 196 196 196 189 189 189 189 189 189 189 245 245 245 14 14
 14 14 14 14 181 181 154 154 154 196 196 196 196 196 196 196 185 185 185 189
 189 189 189 245 245 245 245 14 14 14 14 14 14 181 181 181 154 154 196 196
 196 196 196 196 185 185 185 185 185 189 189 245 245 245 245 245 245 14 14 14
 14 14 14 181 181 154 196 196 196 196 196 196 196 185 185 185 185 185 185 185
 245 245 245 245 245 245 14 14 14 14 14 14 181 181 65 196 196 196 196 196
 196 196 185 185 185 185 185 185 185 245 245 245 245 245 245 14 14 14 14 14
 14 65 65 65 65 170 170 170 170 170 170 185 185 185 185 185 220 20 20 20
 245 245 245 80 14 14 14 11 207 65 65 65 65 65 170 170 170 170 170 170
 147 185 220 220 220 220 220 20 20 20 80 80 80 207 207 207 207 207 65 65
 65 65 65 170 170 170 170 170 182 182 182 220 220 220 220 220 20 20 20 80
 80 80 207 207 207 207 207 207 65 65 65 65 170 170 170 170 182 182 182 182
 220 220 220 220 220 20 20 20 80 80 207 207 207 207 207 207 207 65 65 65
 215 170 170 81 81 81 182 182 182 220 220 220 220 220 141 141 141 141 80 207
 207 207 207 207 207 207 215 215 215 215 215 81 81 81 81 81 182 182 220 220
 220 220 141 141 141 141 141 141 223 207 207 207 207 207 207 215 215 215 215 215
 81 81 81 81 81 81 243 243 243 220 141 141 141 141 141 141 141 223 223 223
 223 223 223 215 215 215 215 215 134 134 81 81 81 81 112 112 112 112 112 141
 141 141 141 141 141 141 223 223 223 223 223 223 223 215 215 215 150 150 150 134
 81 81 81 112 112 112 112 112 141 141 141 141 141 141 223 223 223 223 223 223
 223 223 215 150 150 150 150 150 239 10 10 10 112 112 112 112 112 141 141 141
 141 141 141 223 223 223 223 223 223 223 223 150 150 150 150 150 150 10 10 10
 10 112 112 112 112 112 112 141 141 141 141 37 223 223 223 223 223 223 223 223
 150 150 150 150 150 150 10 10 10 10 10 112 112 112 112 112 141 141 37 37
 37 124 124 223 223 223 223 223 223 150 150 150 150 150 150 10 10 10 10 122
 122 122 122 112 112 152 152 152 37 37 167 124 167 223 223 223 223 219 219 150
 150 150 150 150 10 10 10 10 122 122 122 122 122 152 152 152 152 152 167 167
 124 167 241 241 241 241 219 219 219 150 150 150 224 224 77 77 122 122 122 122
 122 122 152 152 152 152 152 152 167 167 167 241 241 241 241 219 219 219 219 19
 19 224 224 77 77 122 122 122 122 122 122 152 152 152 152 152 152 167 167 241
 241 241 241 241 241 219 219 219 19 19 19 19 149 149 166 47 47 47 47 47
 110 110 152 152 152 152 96 241 241 241 241 241 241 241 219 219 19 19 19 19
 19 149 149 149 47 47 47 47 47 110 110 110 152 152 96 96 96 96 241 241
 241 241 241 13 19 19 19 19 19 19 149 149 149 149 47 47 47 47 110 110
 144 144 144 96 96 96 96 96 241 241 241 107 107 107 19 19 19 19 19 149
 149 149 149 149 47 47 55 55 144 144 144 144 96 96 96 96 96 96 155 107
 107 107 107 19 19 19 19 149 149 149 149 149 102 102 55 55 144 144 144 144
 144 96 96 96 96 96 155 155 107 107 107 107 156 156 19 196 196 196 196 149
 149 102 102 198 189 189 144 144 144 144 96 96 96 96 96 155 155 107 107 107
 154 154 154 154 196 196 196 196 196 196 102 102 198 198 198 198 144 144 144 96
 96 96 96 155 155 155 107 107 154 154 154 154 196 196 196 196 196 196 196 196
 136 198 198 198 189 189 111 144 96 96 82 82 82 155 155 107 154 154 154 154
 154 196 196 196 196 196 196 196 136 136 198 198 198 189 189 111 245 245 245 82
 82 82 14 14 14 181 181 181 154 196 196 196 196 196 196 196 196 185 185 185
 185 189 199 245 245 245 245 245 245 14 14 14 14 14 181 181 181 181 196 196
 196 196 196 196 196 185 185 185 185 185 185 199 245 245 245 245 245 245 14 14
 14 14 14 181 181 181 181 196 196 196 196 196 196 196 185 185 185 185 185 185
 185 245 245 245 245 245 245 14 14 14 14 14 14 181 181 65 170 170 170 170
 170 196 196 185 185 185 185 185 185 185 245 245 245 245 245 245 14 14 14 14
 14 14 65 65 65 65 170 170 170 170 170 201 201 201 185 185 185 20 20 20
 20 20 245 245 245 11 11 11 11 11 145 65 65 65 65 170 170 170 170 170
 201 201 201 201 220 220 220 20 20 20 20 20 20 20 207 207 207 207 207 65
 65 65 65 65 170 170 170 170 170 182 182 182 220 220 220 220 20 20 20 20
 20 20 20 207 207 207 207 207 207 65 65 65 65 170 170 170 170 182 182 182
 182 182 220 220 220 20 20 20 20 20 20 207 207 207 207 207 207 207 65 65
 65 104 170 170 81 81 81 182 182 182 182 220 220 220 141 141 141 141 141 141
 52 52 52 207 207 207 207 207 215 215 215 81 81 81 81 81 81 182 182 182
 220 220 141 141 141 141 141 141 141 223 52 52 52 207 207 207 207 215 215 215
 134 134 81 81 81 81 81 87 87 87 87 141 141 141 141 141 141 141 223 223
 223 223 223 207 207 215 215 215 150 134 134 81 81 81 81 81 87 87 87 87
 141 141 141 141 141 141 141 223 223 223 223 223 223 223 215 215 215 150 150 134
 134 81 81 81 112 112 112 112 112 141 141 141 141 141 141 141 223 223 223 223
 223 223 223 150 150 150 150 150 150 150 10 10 10 112 112 112 112 112 141 141
 141 141 141 141 223 223 223 223 223 223 183 183 150 150 150 150 150 150 150 10
 10 10 10 112 112 112 112 112 141 141 141 37 37 37 223 223 223 223 223 183
 183 150 150 150 150 150 150 10 10 10 10 10 112 112 112 112 112 195 141 37
 37 37 37 124 223 223 223 223 223 219 219 150 150 150 150 150 10 10 10 10
 122 122 122 122 122 195 152 37 37 37 37 124 124 124 124 223 223 219 219 219
 219 150 150 150 150 77 77 77 77 122 122 122 122 122 152 152 152 152 152 37
 124 124 124 124 241 241 219 219 219 219 219 150 150 150 77 77 77 77 122 122
 122 122 122 152 152 152 152 152 152 124 124 124 241 241 241 219 219 219 219 219
 19 19 19 77 77 77 77 122 122 122 122 122 152 152 152 152 152 152 124 124
 124 241 241 241 241 219 219 219 219 19 19 19 19 77 77 77 47 47 47 47
 47 152 152 152 152 152 152 96 96 241 241 241 241 13 13 219 219 19 19 19
 19 19 149 149 149 47 47 47 47 47 110 110 152 152 152 96 96 96 96 96
 241 13 13 13 13 19 19 19 19 19 19 149 149 149 149 47 47 47 47 110
 110 152 244 96 96 96 96 96 96 5 5 13 13 13 13 19 19 19 19 19
 149 149 149 149 149 47 47 47 55 144 244 244 244 96 96 96 96 96 5 5
 107 107 107 107 19 19 19 19 19 149 149 149 149 149 47 47 55 244 244 244
 244 244 96 96 96 96 96 5 107 107 107 107 107 19 19 19 19 196 196 149
 149 149 149 198 198 198 198 244 244 244 244 96 96 96 96 96 155 107 107 107
 107 107 19 154 19 196 196 196 196 196 196 196 198 198 198 198 198 244 244 244
 96 96 96 82 82 82 107 107 107 107 107 154 154 196 196 196 196 196 196 196
 136 136 198 198 198 198 111 111 111 96 96 82 82 82 82 107 107 107 107 154
 154 196 196 196 196 196 196 196 196 136 136 136 198 198 199 111 111 111 245 82
 82 82 82 82 14 107 181 181 181 154 196 196 196 196 196 196 196 196 136 136
 136 199 199 199 111 111 245 245 245 82 82 82 82 14 145 145 181 181 181 196
 196 196 196 196 196 196 196 136 185 185 199 199 199 245 245 245 245 245 245 11
 11 11 11 145 145 145 145 145 196 196 196 196 196 196 196 196 185 185 185 185
 199 199 20 245 245 245 245 245 11 11 11 11 145 145 145 145 145 170 170 170
 170 170 196 196 185 185 185 185 185 185 20 20 245 245 245 245 245 11 11 11
 11 11 145 145 145 65 170 170 170 170 170 201 201 201 201 201 185 20 20 20
 20 20 20 20 245 245 11 11 11 11 11 145 145 145 65 170 170 170 170 170
 170 201 201 201 201 201 20 20 20 20 20 20 20 20 20 11 11 11 11 11
 11 65 65 65 170 170 170 170 170 201 201 201 201 201 220 220 20 20 20 20
 20 20 20 20 52 52 52 52 52 207 65 65 65 170 170 170 170 170 182 182
 182 182 182 220 220 20 20 20 20 20 20 20 52 52 52 52 52 52 207 65
 65 65 104 104 170 81 81 81 182 182 182 182 220 220 220 141 141 141 141 141
 141 52 52 52 52 52 52 52 52 215 104 104 104 81 81 81 81 81 182 182
 87 87 87 141 141 141 141 141 141 141 52 52 52 52 52 52 52 52 215 104
 104 134 134 134 81 81 81 81 87 87 87 87 141 141 141 141 141 141 141 141
 52 52 52 52 52 52 52 215 104 134 134 134 134 81 81 81 87 87 87 87
 87 141 141 141 141 141 141 141 223 223 223 223 223 183 183 183 150 150 150 150
 134 134 134 81 81 87 87 87 87 87 141 141 141 141 141 141 141 223 223 223
 223 183 183 183 183 150 150 150 150 150 150 10 10 10 87 87 87 87 87 141
 141 141 141 141 37 37 223 223 223 183 183 183 183 183 150 150 150 150 150 150
 10 10 10 10 112 112 112 112 195 141 141 37 37 37 37 37 223 223 183 183
 183 183 183 150 150 150 150 150 150 10 10 10 10 112 112 112 195 195 195 195
 37 37 37 37 37 124 223 183 183 183 183 219 150 150 150 150 150 77 77 10
 10 10 117 117 122 195 195 195 195 37 37 37 37 124 124 163 163 163 219 219
 219 219 150 150 150 150 77 77 77 77 117 117 117 122 195 195 195 152 152 37
 37 124 124 124 124 163 163 219 219 219 219 219 219 150 77 77 77 77 77 117
 117 117 117 195 195 152 152 152 152 152 124 124 124 124 163 241 219 219 219 219
 219 19 19 19 77 77 77 77 117 117 117 122 47 152 152 152 152 152 152 124
 124 124 124 241 13 13 219 219 219 219 19 19 19 19 19 77 77 47 47 47
 47 47 152 152 152 152 152 152 96 96 96 241 241 13 13 13 219 219 19 19
 19 19 19 19 149 149 149 47 47 47 47 47 152 152 152 152 96 96 96 96
 96 5 5 13 13 13 19 19 19 19 19 19 149 149 149 149 47 47 47 47
 47 110 244 244 244 96 96 96 96 96 5 5 5 13 13 13 19 19 19 19
 19 149 149 149 149 149 47 47 47 244 244 244 244 244 96 96 96 96 96 5
 5 5 13 13 19 19 19 19 19 19 149 149 149 149 149 149 47 244 244 244
 244 244 244 96 96 96 96 96 5 5 107 107 107 107 19 19 19 19 19 149
 149 149 149 149 149 198 198 244 244 244 244 244 96 96 96 96 96 5 107 107
 107 107 107 19 19 19 196 196 196 196 196 149 149 198 198 198 198 244 244 244
 244 96 96 82 82 82 82 107 107 107 107 107 19 154 196 196 196 196 196 196
 196 136 136 198 198 198 199 111 111 111 111 82 82 82 82 82 107 107 107 107
 107 154 196 196 196 196 196 196 196 196 136 136 136 199 199 199 111 111 111 111
 111 82 82 82 82 82 107 145 181 181 154 196 196 196 196 196 196 196 136 136
 136 136 199 199 199 111 111 111 245 245 82 82 82 82 11 145 145 145 145 145
 196 196 196 196 196 196 196 136 136 136 199 199 199 199 111 111 245 245 245 245
 82 11 11 11 145 145 145 145 145 196 196 196 196 196 196 196 136 136 136 199
 199 199 199 20 245 245 245 245 245 11 11 11 11 145 145 145 145 145 170 170
 170 170 170 196 201 201 201 201 185 199 199 20 20 20 245 245 245 245 11 11
 11 11 11 145 145 145 145 142 142 170 170 170 201 201 201 201 201 201 20 20
 20 20 20 20 20 20 20 11 11 11 11 11 145 145 145 145 142 142 170 170
 170 201 201 201 201 201 201 20 20 20 20 20 20 20 20 20 43 11 11 11
 11 11 145 145 142 142 142 170 170 170 201 201 201 201 201 201 20 20 20 20
 20 20 20 20 20 52 52 52 52 52 11 65 142 142 104 142 172 172 172 201
 201 201 201 201 201 191 20 20 20 20 20 20 20 52 52 52 52 52 52 52
 52 142 142 104 104 104 81 81 81 182 182 182 182 182 87 191 191 20 30 30
 30 30 52 52 52 52 52 52 52 52 104 104 104 104 104 81 81 81 81 182
 87 87 87 87 87 141 141 141 141 141 141 52 52 52 52 52 52 52 52 104
 104 104 104 134 134 81 81 81 87 87 87 87 87 141 141 141 141 141 141 141
 141 52 52 52 52 52 52 52 104 104 104 134 134 134 134 81 81 87 87 87
 87 87 141 141 141 141 141 141 141 223 223 223 223 52 52 183 183 104 104 150
 134 134 134 134 81 81 87 87 87 87 87 141 141 141 141 141 141 141 223 223
 183 183 183 183 183 183 150 150 150 150 150 134 134 10 10 87 87 87 87 87
 87 141 141 141 141 37 37 37 223 183 183 183 183 183 73 150 150 150 150 150
 1 1 10 10 10 148 148 148 195 195 195 195 37 37 37 37 37 163 183 183
 183 183 183 73 150 150 150 150 150 1 1 10 10 10 148 148 148 195 195 195
 195 37 37 37 37 37 163 163 183 183 183 183 73 150 150 150 150 158 77 77
 77 77 117 117 117 27 195 195 195 195 37 37 37 37 124 163 163 163 163 183
 73 219 219 150 150 150 158 77 77 77 77 117 117 117 27 27 195 195 195 195
 37 37 37 124 163 163 163 163 219 219 219 219 219 219 19 77 77 77 77 77
 117 117 117 117 27 195 195 195 152 152 152 124 124 124 163 163 163 13 219 219
 219 219 19 19 19 77 77 77 77 117 117 117 117 195 195 195 152 152 152 152
 124 124 124 163 163 13 13 13 219 219 219 19 19 19 19 19 77 77 47 47
 47 47 47 195 83 83 83 83 83 83 96 96 96 13 13 13 13 13 13 19
 19 19 19 19 19 149 149 149 47 47 47 47 83 83 83 83 83 83 96 96
 96 96 5 5 13 13 13 13 19 19 19 19 19 19 149 149 149 149 47 47
 47 83 83 83 83 83 96 96 96 96 5 5 5 5 13 13 13 19 19 19
 19 19 149 149 149 149 149 149 246 31 31 31 244 244 61 61 96 96 96 5
 5 5 5 5 13 13 19 19 19 19 19 149 149 149 149 149 149 99 99 244
 244 244 244 61 61 96 96 96 5 5 5 5 5 107 19 19 19 19 19 19
 149 149 149 149 149 99 99 199 99 244 244 244 61 61 96 96 96 5 5 5
 5 107 107 107 19 19 19 19 196 196 196 196 149 136 136 199 199 199 244 244
 244 61 61 96 82 82 82 82 107 107 107 107 107 19 19 196 196 196 196 196
 196 196 136 136 199 199 199 199 111 111 111 111 111 82 82 82 82 82 107 107
 107 107 19 196 196 196 196 196 196 196 136 136 136 136 199 199 199 111 111 111
 111 111 82 82 82 82 11 11 145 145 145 145 196 196 196 196 196 196 196 136
 136 136 199 199 199 199 111 111 111 111 245 82 82 82 11 11 11 145 145 145
 145 231 196 196 196 196 196 196 136 136 136 199 199 199 199 111 111 111 245 245
 82 82 11 11 11 11 145 145 145 145 142 142 196 196 196 196 196 136 136 136
 199 199 199 199 111 111 245 245 245 245 11 11 11 11 11 145 145 145 145 142
 142 170 170 170 201 201 201 201 201 199 199 199 20 20 20 20 245 245 245 11
 11 11 11 11 145 145 145 145 142 142 142 142 170 201 201 201 201 201 201 201
 20 20 20 20 20 20 20 43 43 11 11 11 11 145 145 145 142 142 142 142
 172 172 201 201 201 201 201 201 191 191 20 20 20 20 20 20 43 43 43 11
 11 11 11 145 145 142 142 142 142 172 172 201 201 201 201 201 201 191 191 191
 20 30 30 30 20 43 43 52 52 52 52 11 12 142 142 104 142 172 172 172
 201 201 201 201 201 201 191 191 191 30 30 30 30 20 43 52 52 52 52 52
 52 12 142 142 104 104 104 172 172 201 201 201 201 201 191 191 191 191 191 30
 30 30 30 52 52 52 52 52 52 52 52 104 104 104 104 104 104 81 81 205
 182 87 87 87 87 191 191 191 34 34 34 34 52 52 52 52 52 52 52 52
 104 104 104 104 104 134 81 205 205 87 87 87 87 87 191 34 34 34 34 34
 34 52 52 52 52 52 52 52 52 104 104 104 104 134 134 134 205 205 87 87
 87 87 87 141 34 34 34 34 34 34 34 52 52 52 52 52 183 183 104 104
 104 104 134 134 134 81 81 87 87 87 87 87 87 34 34 34 34 34 34 223
 183 183 183 183 183 183 183 165 165 158 158 158 1 1 1 10 87 87 87 87
 87 195 34 34 34 34 34 37 37 183 183 183 183 183 183 73 73 150 158 158
 158 1 1 1 10 148 148 148 148 148 195 195 195 195 37 37 37 37 163 163
 183 183 183 73 73 73 158 158 158 158 1 1 1 10 148 148 148 148 195 195
 195 195 195 37 37 37 163 163 163 163 183 73 73 73 73 158 158 158 158 1
 1 77 77 148 148 148 148 27 195 195 195 195 37 37 37 163 163 163 163 163
 73 73 73 73 158 158 158 158 77 77 77 77 117 117 117 27 27 195 195 195
 195 195 37 37 163 163 163 163 163 73 73 73 73 219 158 158 158 77 77 77
 77 117 117 117 27 27 195 195 195 195 195 152 124 163 163 163 163 163 13 13
 219 219 219 19 19 19 19 77 77 77 117 117 117 27 27 195 195 195 195 83
 83 130 124 163 163 163 13 13 13 13 13 219 19 19 19 19 19 77 77 117
 47 47 47 195 195 195 83 83 83 83 83 130 163 163 163 13 13 13 13 13
 19 19 19 19 19 19 149 149 149 47 47 47 31 31 83 83 83 83 83 96
 96 96 5 5 5 13 13 13 13 19 19 19 19 19 19 149 149 149 149 246
 246 31 31 31 83 83 83 61 61 96 96 5 5 5 5 13 13 13 19 19
 19 19 19 19 149 149 149 149 246 246 31 31 31 31 61 61 61 61 96 96
 5 5 5 5 5 13 19 19 19 19 19 19 19 149 149 149 149 246 99 99
 31 31 61 61 61 61 61 96 96 5 5 5 5 5 107 19 19 19 19 19
 19 149 149 149 149 99 99 99 99 99 31 61 61 61 61 61 135 135 5 5
 5 5 5 107 19 19 19 19 19 196 196 120 196 120 99 99 99 99 99 31
 61 61 61 61 61 135 135 82 82 5 107 107 107 107 19 231 231 196 196 196
 120 120 136 136 136 199 199 199 199 111 111 111 111 111 82 82 82 82 82 11
 107 107 231 231 231 231 196 196 196 196 196 136 136 136 199 199 199 111 111 111
 111 111 111 82 82 82 11 11 11 145 145 145 231 231 231 196 196 196 196 196
 136 136 136 199 199 199 199 111 111 111 111 111 82 82 82 11 11 11 145 145
 145 145 231 231 186 196 196 196 196 136 136 136 199 199 199 199 111 111 111 111
 245 82 222 222 11 11 11 145 145 145 145 142 142 142 196 196 201 201 201 136
 136 199 199 199 199 111 111 111 111 245 222 222 11 11 11 11 145 145 145 145
 142 142 142 142 201 201 201 201 201 201 199 199 199 20 20 20 20 20 245 43
 11 11 11 11 11 145 145 145 145 142 142 142 142 142 201 201 201 201 201 116
 191 191 20 20 20 20 20 43 43 43 43 11 11 11 11 145 145 142 142 142
 142 172 172 201 201 201 201 201 201 191 191 191 20 20 30 30 43 43 43 43
 43 11 11 11 12 142 142 142 142 172 172 172 201 201 201 201 201 201 191 191
 191 191 30 30 30 43 43 43 52 52 52 12 12 12 12 142 104 142 172 172
 172 172 201 201 201 201 191 191 191 191 191 30 30 30 43 43 52 52 52 52
 52 12 12 12 142 104 104 104 172 172 205 205 201 201 201 191 191 191 191 191
 30 30 30 43 43 52 52 52 52 52 12 12 12 104 104 104 104 104 205 205
 205 205 87 3 3 191 191 191 191 34 34 34 34 52 52 52 52 52 52 12
 12 104 104 104 104 104 205 205 205 205 205 87 3 3 3 191 34 34 34 34
 34 34 52 52 52 52 52 52 12 12 104 104 104 104 104 134 205 205 205 87