# vtk DataFile Version 2.0
Data set from ImportExport Version 6.5.171.b0b162591
ASCII

DATASET RECTILINEAR_GRID
DIMENSIONS 30 30 30
X_COORDINATES 30 float
-1.250000 1.250000 3.750000 6.250000 8.750000 11.250000 13.750000 16.250000 18.750000 21.250000 23.750000 26.250000 28.750000 31.250000 33.750000 36.250000 38.750000 41.250000 43.750000 46.250000 48.750000 
51.250000 53.750000 56.250000 58.750000 61.250000 63.750000 66.250000 68.750000 71.250000 
Y_COORDINATES 30 float
-1.250000 1.250000 3.750000 6.250000 8.750000 11.250000 13.750000 16.250000 18.750000 21.250000 23.750000 26.250000 28.750000 31.250000 33.750000 36.250000 38.750000 41.250000 43.750000 46.250000 48.750000 
51.250000 53.750000 56.250000 58.750000 61.250000 63.750000 66.250000 68.750000 71.250000 
Z_COORDINATES 30 float
-1.250000 1.250000 3.750000 6.250000 8.750000 11.250000 13.750000 16.250000 18.750000 21.250000 23.750000 26.250000 28.750000 31.250000 33.750000 36.250000 38.750000 41.250000 43.750000 46.250000 48.750000 
51.250000 53.750000 56.250000 58.750000 61.250000 63.750000 66.250000 68.750000 71.250000 
CELL_DATA 24389
SCALARS FeatureIds int 1
LOOKUP_TABLE default
 109 168 168 168 168 168 219 219 219 219 219 140 140 140 140 140 140 148 148 148
 148 191 191 191 191 216 216 216 216 109 109 168 168 168 168 219 219 219 219 219
 140 140 140 140 140 140 148 148 148 148 148 191 191 191 216 216 216 109 109 109
 109 168 168 168 168 219 219 219 219 219 140 140 140 140 148 148 148 148 148 148
 148 148 137 216 216 109 109 109 109 109 168 168 168 168 219 219 219 219 219 140
 140 140 140 148 148 148 148 148 148 148 137 137 137 216 109 109 231 231 231 231
 168 168 168 219 219 219 219 119 150 150 140 140 148 148 148 148 148 148 137 137
 137 137 231 231 231 231 231 231 231 231 168 155 155 155 155 119 119 150 150 150
 150 203 148 148 148 148 137 137 137 137 34 231 231 231 231 231 231 231 231 103
 103 103 103 119 119 119 150 150 150 150 203 203 203 158 34 34 34 34 34 34
 243 243 231 231 231 231 231 231 103 103 103 103 119 119 119 150 150 150 150 203
 203 203 203 34 34 34 34 34 34 243 243 243 231 231 231 231 231 197 103 103
 119 119 119 119 150 150 150 150 203 203 203 203 158 34 34 34 34 34 243 243
 243 231 231 231 197 197 197 197 197 119 119 119 119 150 150 150 150 203 203 203
 203 233 63 63 217 217 217 243 243 243 231 231 197 197 197 197 197 197 119 119
 119 119 150 150 150 150 203 203 233 233 233 63 63 217 217 217 25 243 243 183
 197 197 197 197 197 197 197 237 237 119 119 150 150 150 150 233 233 233 233 233
 63 63 63 217 25 25 25 243 183 183 183 197 197 197 197 197 237 237 119 119
 150 150 150 150 233 233 233 233 233 233 63 63 217 25 25 25 25 183 183 183
 183 197 197 197 197 237 237 237 237 163 163 163 163 163 233 233 233 233 233 63
 63 217 25 25 25 183 183 183 183 183 183 197 15 15 237 237 237 185 163 163
 163 163 163 85 85 85 85 85 85 111 111 111 111 111 183 183 183 183 183 183
 197 15 107 107 107 107 185 163 163 163 163 163 85 85 85 85 85 85 111 111
 111 111 111 183 3 3 3 183 183 183 107 107 107 107 107 107 82 82 82 82
 82 85 85 85 85 85 85 111 111 111 111 111 3 3 3 3 183 183 107 107
 107 107 107 107 107 107 82 82 82 82 85 85 85 85 85 85 111 111 111 111
 111 3 3 3 3 3 206 206 107 107 107 107 107 107 107 82 82 82 82 85
 85 85 85 85 85 111 111 111 111 111 3 3 3 3 221 206 206 107 107 107
 107 107 107 107 82 82 82 82 85 85 85 85 85 101 101 39 39 39 111 3
 3 221 221 221 221 221 107 107 107 107 107 107 107 107 82 82 82 85 85 85
 85 85 101 101 101 39 39 111 3 221 221 221 221 221 221 107 107 107 107 107
 107 107 107 159 159 159 85 85 85 123 101 101 101 101 101 39 111 3 221 221
 221 221 221 221 221 107 107 107 107 107 107 159 159 159 159 159 26 123 123 123
 123 101 101 101 39 111 3 244 244 244 244 244 244 77 77 77 213 213 213 213
 159 159 159 159 159 26 123 123 123 123 123 101 101 39 111 3 244 244 244 244
 244 244 77 77 213 213 213 213 213 159 159 159 159 159 26 123 123 123 123 123
 101 101 136 136 136 244 244 244 244 244 75 75 77 213 213 213 213 213 166 166
 166 166 166 191 191 191 191 191 191 191 136 136 136 136 75 75 75 75 75 75
 75 77 213 213 213 213 213 154 154 154 154 154 191 191 191 191 191 191 191 136
 136 136 136 75 75 75 75 75 75 75 75 77 77 77 77 154 154 154 154 154
 154 148 191 191 191 191 191 191 136 136 136 136 75 75 75 75 75 75 75 219
 219 77 77 77 140 140 140 140 140 148 148 148 191 191 191 191 191 136 136 136
 216 109 168 168 168 168 168 78 78 78 78 78 140 140 140 140 140 140 148 148
 148 148 191 191 191 191 216 216 216 216 109 109 168 168 168 168 168 78 78 78
 78 140 140 140 140 140 140 148 148 148 148 148 191 191 191 216 216 216 216 109
 109 109 168 168 168 168 168 78 219 219 140 140 140 140 140 140 148 148 148 148
 148 148 191 216 216 216 216 109 109 109 109 168 168 168 168 168 155 155 155 140
 140 140 140 140 140 148 148 148 148 148 148 34 34 216 216 216 109 231 231 231
 231 168 168 155 155 155 155 155 150 150 140 140 140 140 148 148 148 148 148 34
 34 34 34 231 231 231 231 133 231 231 231 155 155 155 155 155 155 150 150 150
 150 150 203 158 158 158 158 34 34 34 34 34 34 231 231 231 231 231 231 231
 103 103 103 103 103 119 150 150 150 150 150 203 158 158 158 158 34 34 34 34
 34 34 231 231 231 231 231 231 231 103 103 103 103 119 119 119 150 150 150 150
 203 203 158 158 158 34 34 34 34 34 34 231 231 231 231 231 231 231 103 103
 103 103 119 119 119 150 150 150 150 203 203 203 158 158 34 34 34 34 34 34
 243 243 231 231 231 49 49 49 103 237 237 119 119 119 150 150 150 150 203 203
 203 233 233 34 34 34 34 34 243 243 243 33 33 49 49 49 49 49 237 237
 237 119 119 150 150 150 150 203 203 233 233 233 233 34 34 34 217 25 243 243
 33 33 33 49 49 49 49 49 237 237 237 119 150 150 150 150 203 233 233 233
 233 233 233 129 129 129 25 25 243 33 33 33 49 49 49 49 237 237 237 237
 237 150 150 150 150 203 233 233 233 233 233 233 129 129 129 129 129 33 33 33
 33 33 15 15 15 237 237 237 237 237 150 163 163 163 163 233 233 233 233 233
 233 129 129 129 129 129 33 33 33 33 33 15 15 15 15 237 237 237 185 163
 163 163 163 163 163 85 85 85 85 85 129 129 129 129 111 183 183 183 183 183
 15 15 15 15 107 107 185 185 185 163 163 163 163 85 85 85 85 85 85 129
 111 111 111 111 183 3 3 3 183 183 15 15 107 107 107 185 185 185 82 82
 82 82 85 85 85 85 85 85 111 111 111 111 111 3 3 3 3 3 3 38
 38 107 107 107 107 185 185 82 82 82 82 85 85 85 85 85 85 111 111 111
 111 111 3 3 3 3 3 38 38 38 107 107 107 107 107 107 82 82 82 82
 85 85 85 85 85 85 111 111 111 111 111 3 3 3 221 221 221 38 38 107
 107 107 107 107 107 82 82 82 82 85 85 85 85 85 85 101 111 111 111 111
 3 221 221 221 221 221 221 38 107 107 107 107 107 107 82 82 159 82 85 85
 85 85 85 85 101 101 39 39 111 3 221 221 221 221 221 221 38 107 107 107
 107 107 107 159 159 159 159 159 85 85 123 123 101 101 101 101 39 111 3 221
 221 221 221 221 221 221 107 107 107 107 107 107 159 159 159 159 159 26 26 123
 123 123 101 101 101 39 111 3 244 244 244 244 244 244 244 213 213 213 213 213
 213 159 159 159 159 159 26 26 123 123 123 123 123 123 136 136 136 244 244 244
 244 244 244 244 213 213 213 213 213 213 159 159 159 159 159 26 26 123 123 123
 123 123 136 136 136 136 244 244 244 244 244 75 75 213 213 213 213 213 213 166
 166 166 166 166 26 191 191 191 191 191 136 136 136 136 136 75 75 75 75 75
 75 75 213 213 213 213 213 213 154 154 154 154 154 154 191 191 191 191 191 136
 136 136 136 136 75 75 75 75 75 75 75 78 78 213 213 213 154 154 154 154
 154 154 148 191 191 191 191 191 136 136 136 136 136 75 75 75 75 75 75 75
 78 78 78 213 140 140 140 140 154 154 148 148 148 191 191 191 191 136 136 136
 136 216 216 216 168 168 168 78 78 78 78 78 78 140 140 140 140 140 140 148
 148 148 148 191 191 191 136 136 216 216 216 216 109 168 168 168 168 78 78 78
 78 78 140 140 140 140 140 140 148 148 148 148 148 191 6 136 216 216 216 216
 109 109 109 168 168 168 168 78 78 78 78 140 140 140 140 140 140 148 148 148
 148 148 148 6 216 216 216 216 216 109 109 109 168 168 168 168 155 155 155 155
 140 140 140 140 140 140 148 148 148 148 148 34 34 34 216 216 216 109 231 231
 231 231 168 168 155 155 155 155 155 155 140 140 140 140 67 148 148 148 148 34
 34 34 34 34 216 231 231 231 231 231 231 231 155 155 155 155 155 155 155 150
 150 150 67 67 158 158 158 158 34 34 34 34 34 34 231 231 231 231 231 231
 231 103 103 103 103 103 103 119 150 150 150 150 158 158 158 158 158 34 34 34
 34 34 34 231 231 231 231 231 231 231 103 103 103 103 103 119 119 150 150 150
 150 203 158 158 158 158 34 34 34 34 34 34 34 231 231 231 231 231 103 103
 103 103 103 119 119 119 150 150 150 150 203 203 158 158 158 34 34 34 34 34
 34 34 231 231 231 231 49 49 49 103 103 237 237 119 119 150 150 150 150 203
 203 203 233 233 34 34 34 34 34 34 34 243 33 33 49 49 49 49 49 237
 237 237 237 119 150 150 150 150 203 203 233 233 233 233 34 34 34 34 34 34
 243 33 33 33 49 49 49 49 49 237 237 237 119 150 150 150 150 203 203 233
 233 233 233 129 129 129 129 129 129 33 33 33 33 49 49 49 49 237 237 237
 237 237 150 150 150 150 203 233 233 233 233 233 129 129 129 129 129 129 33 33
 33 33 33 15 15 15 15 237 237 237 237 237 163 163 163 163 163 233 233 233
 233 129 129 129 129 129 129 33 33 33 33 33 15 15 15 15 237 237 237 237
 163 163 163 163 163 163 85 85 85 85 129 129 129 129 129 129 33 33 33 33
 33 15 15 15 15 107 185 185 185 185 163 163 163 163 163 85 85 85 85 85
 129 129 129 129 129 33 3 3 3 80 15 15 15 38 107 185 185 185 185 82
 82 82 163 85 85 85 85 85 85 223 223 223 111 111 3 3 3 3 80 80
 38 38 38 107 107 185 185 185 82 82 82 82 85 85 85 85 85 85 223 223
 223 223 111 3 3 3 3 80 38 38 38 38 107 107 107 185 185 82 82 82
 82 85 85 85 85 85 85 223 223 223 111 111 3 3 80 221 221 38 38 38
 38 107 107 107 107 185 82 82 82 82 85 85 85 85 85 85 223 223 223 111
 143 3 127 221 221 221 221 38 38 38 107 107 107 107 107 159 159 159 159 85
 85 85 85 85 85 101 223 223 39 143 143 221 221 221 221 221 221 38 107 107
 107 107 107 107 159 159 159 159 159 26 26 26 123 123 101 101 101 39 143 127
 221 221 221 221 221 221 38 107 107 107 107 107 159 159 159 159 159 159 26 26
 26 123 123 123 60 60 60 143 127 244 244 244 244 244 244 244 213 213 213 213
 213 159 159 159 159 159 159 26 26 26 123 123 123 60 60 136 136 136 244 244
 244 244 244 244 75 213 213 213 213 213 213 159 159 159 159 159 26 26 26 123
 123 123 136 136 136 136 136 244 244 244 244 75 75 75 213 213 213 213 213 213
 166 166 166 166 166 26 26 191 191 191 191 136 136 136 136 136 75 75 75 75
 75 75 75 78 213 213 213 213 154 154 154 154 154 154 26 191 191 191 191 191
 136 136 136 136 136 75 75 75 75 75 75 78 78 78 213 213 213 154 154 154
 154 154 154 148 191 191 191 191 191 136 136 136 136 136 75 75 75 75 75 78
 78 78 78 78 213 140 140 140 140 154 154 154 148 148 191 191 191 191 136 136
 136 216 216 216 216 168 168 78 78 78 78 78 78 78 140 140 140 140 140 140
 154 148 148 148 148 191 6 136 136 216 216 216 216 109 168 168 168 78 78 78
 78 78 78 140 140 140 140 140 140 148 148 148 148 148 148 6 6 6 216 216
 216 216 109 109 168 168 168 78 78 78 78 78 140 140 140 140 140 140 148 148
 148 148 148 148 6 6 6 216 216 216 109 109 109 168 168 168 155 155 155 155
 155 140 140 140 140 140 67 67 67 148 148 148 34 34 6 6 216 216 216 231
 231 231 231 168 155 155 155 155 155 155 155 140 140 140 67 67 67 67 148 158
 34 34 34 34 34 216 216 231 231 231 231 231 231 155 155 155 155 155 155 155
 150 150 67 67 67 67 67 158 158 34 34 34 34 34 34 231 231 231 231 231
 231 231 155 155 103 103 103 103 119 150 150 150 67 67 67 158 158 158 34 34
 34 34 34 34 34 231 231 231 231 231 103 103 103 103 103 103 119 119 150 150
 150 150 67 158 158 158 158 34 34 34 34 34 34 34 231 231 231 231 231 103
 103 103 103 103 103 119 119 150 150 150 150 93 93 158 158 158 34 34 34 34
 34 34 34 207 231 231 49 49 49 49 103 153 237 237 237 119 150 150 150 150
 93 93 158 158 158 34 34 34 34 34 34 34 207 33 33 49 49 49 49 49
 237 237 237 237 119 150 150 150 150 93 93 233 233 233 233 34 34 129 129 129
 129 33 33 33 33 49 49 49 49 237 237 237 237 237 150 150 150 150 93 93
 233 233 233 233 129 129 129 129 129 129 33 33 33 33 49 49 15 49 237 237
 237 237 237 150 150 150 150 93 233 233 233 233 233 129 129 129 129 129 129 33
 33 33 33 15 15 15 15 15 237 237 237 237 237 196 163 163 163 163 85 233
 233 233 129 129 129 129 129 129 33 33 33 33 15 15 15 15 15 237 237 237
 237 185 163 163 163 163 163 85 85 85 85 129 129 129 129 129 129 33 33 33
 33 15 15 15 15 15 237 185 185 185 185 163 163 163 163 163 85 85 85 85
 85 129 129 129 129 129 33 80 80 80 80 80 15 15 38 185 185 185 185 185
 185 82 82 163 85 85 85 85 85 85 223 223 223 223 143 3 80 80 80 80
 80 38 38 38 38 185 185 185 185 185 82 82 82 85 85 85 85 85 223 223
 223 223 223 143 143 80 80 80 80 80 38 38 38 38 107 185 185 185 185 82
 82 82 85 85 85 85 85 223 223 223 223 143 143 143 80 80 80 80 80 38
 38 38 38 107 107 185 185 185 82 82 82 85 85 85 85 85 85 223 223 223
 143 143 143 127 127 127 221 221 38 38 38 38 107 107 107 185 159 159 159 159
 85 85 85 85 85 95 223 223 223 143 143 143 127 127 127 221 221 38 38 38
 107 107 107 107 159 159 159 159 159 159 26 26 26 26 60 60 60 60 143 143
 127 127 127 127 221 221 221 38 38 107 107 107 107 159 159 159 159 159 159 26
 26 26 26 60 60 60 60 60 143 127 127 127 244 244 244 244 244 38 213 213
 213 213 159 159 159 159 159 26 26 26 26 26 60 60 60 60 60 143 127 127
 244 244 244 244 244 78 78 213 213 213 213 159 159 159 159 159 159 26 26 26
 26 60 60 60 60 136 136 136 110 110 244 244 75 78 78 78 213 213 213 213
 166 166 166 166 166 166 26 26 26 191 191 136 136 136 136 136 136 110 110 75
 75 75 78 78 78 78 213 213 213 154 154 154 154 154 154 154 191 191 191 191
 136 136 136 136 136 136 75 75 75 75 78 78 78 78 78 78 213 140 140 154
 154 154 154 154 154 191 191 191 191 136 136 136 136 136 136 75 75 75 75 78
 78 78 78 78 78 78 140 140 140 140 154 154 154 148 148 191 191 202 136 136
 136 136 216 216 216 216 168 168 78 78 78 78 78 78 78 140 140 140 140 140
 140 154 148 148 202 202 202 6 6 6 6 216 216 216 216 168 168 78 78 78
 78 78 78 78 140 140 140 140 140 140 148 148 148 148 148 202 6 6 6 6
 216 216 216 109 109 168 78 78 78 78 78 78 235 140 140 140 140 140 140 67
 148 148 148 148 6 6 6 6 6 216 216 109 109 8 8 8 155 155 155 155
 155 235 235 140 140 140 140 67 67 67 67 67 34 34 6 6 6 6 216 216
 231 231 8 8 8 155 155 155 155 155 155 235 140 140 140 67 67 67 67 67
 67 34 34 34 34 34 6 216 231 231 231 8 8 8 155 155 155 155 155 155
 155 150 67 67 67 67 67 67 67 158 34 34 34 34 34 34 207 207 231 231
 8 8 8 155 155 103 103 103 103 119 150 150 67 67 67 67 67 158 158 34
 34 34 34 34 34 207 207 231 231 8 8 8 103 103 103 103 103 103 119 150
 150 150 67 67 67 158 158 158 34 34 34 34 34 34 207 207 207 231 8 8
 103 103 103 103 103 103 119 119 150 150 150 93 93 93 158 158 158 34 34 34
 34 34 34 207 207 215 215 215 49 49 153 153 153 153 237 237 237 150 150 150
 93 93 93 93 158 158 34 34 34 34 34 34 207 207 33 33 49 49 49 49
 49 153 237 237 237 237 150 150 150 93 93 93 93 93 233 233 34 34 129 129
 129 129 215 33 33 33 49 49 49 49 49 237 237 237 237 196 150 196 93 93
 93 93 93 233 233 129 129 129 129 129 129 33 33 33 33 49 49 49 49 237
 237 237 237 237 196 196 196 196 93 93 93 233 233 233 129 129 129 129 129 129
 33 33 33 33 15 15 15 15 15 237 237 237 237 196 196 196 196 164 164 246
 246 170 170 129 129 129 129 129 129 33 33 33 33 15 15 15 15 15 237 237
 237 196 196 196 196 196 90 246 246 246 170 170 170 129 129 129 129 129 33 33
 33 80 80 15 15 15 15 237 185 185 185 185 185 196 90 90 90 246 246 170
 170 170 129 129 129 129 129 33 80 80 80 80 80 15 15 38 185 185 185 185
 185 185 82 90 90 85 85 85 170 170 170 223 223 223 223 143 143 80 80 80
 80 80 76 38 38 38 185 185 185 185 185 82 82 90 85 85 85 85 85 223
 223 223 223 223 143 143 80 80 80 80 80 76 38 38 38 38 185 185 185 185
 82 82 82 85 85 85 85 85 223 223 223 223 143 143 143 80 80 80 80 80
 38 38 38 38 38 185 185 185 185 82 82 82 85 85 85 95 95 95 223 223
 143 143 143 143 127 127 127 80 76 38 38 38 38 107 107 107 185 159 159 159
 159 85 85 85 95 95 95 95 223 143 143 143 143 127 127 127 127 76 38 38
 38 38 107 107 107 159 159 159 159 159 159 26 26 26 26 60 60 60 60 143
 143 127 127 127 127 127 221 221 38 38 38 107 107 159 159 159 159 159 159 159
 26 26 26 26 60 60 60 60 60 143 127 127 127 127 127 244 244 38 162 162
 162 162 162 159 159 159 159 159 159 26 26 26 26 60 60 60 60 60 143 127
 127 127 127 110 110 78 78 162 162 162 162 162 159 159 159 159 159 159 26 26
 26 26 60 60 60 60 60 60 127 110 110 110 110 78 78 78 78 162 162 162
 162 166 166 166 166 166 166 26 26 202 202 60 60 60 136 136 136 136 110 110
 110 78 78 78 78 78 78 162 162 162 154 154 154 154 154 154 154 202 202 202
 202 202 136 136 136 136 136 110 110 110 78 78 78 78 78 78 78 162 140 140
 154 154 154 154 154 154 202 202 202 202 202 136 136 136 136 136 139 110 110 78
 78 78 78 78 78 78 78 140 140 140 140 154 154 154 154 202 202 202 202 202
 136 136 136 216 216 216 216 78 78 78 78 78 78 78 78 78 140 140 140 140
 140 154 154 148 148 202 202 202 6 6 6 6 6 216 216 216 8 78 78 78
 78 78 78 235 235 235 140 140 140 140 140 67 148 148 148 202 202 6 6 6
 6 6 216 216 8 8 8 8 78 78 78 235 235 235 235 140 140 140 140 140
 67 67 67 148 202 6 6 6 6 6 6 216 8 8 8 8 8 8 155 155
 235 235 235 235 235 140 140 67 67 67 67 67 67 67 6 6 6 6 6 6
 216 8 8 8 8 8 8 155 155 155 235 235 235 235 140 67 67 67 67 67
 67 67 34 34 34 45 45 45 45 207 8 8 8 8 8 8 155 155 155 155
 235 235 235 67 67 67 67 67 67 67 158 34 34 34 45 45 45 207 207 207
 8 8 8 8 8 103 103 103 103 103 235 36 36 67 67 67 67 67 67 158
 34 34 34 34 34 207 207 207 207 8 8 8 8 103 103 103 103 103 103 36
 36 36 67 67 67 67 67 158 158 34 34 34 34 34 207 207 207 207 8 8
 8 153 153 153 153 153 153 237 36 36 150 150 93 93 93 93 158 158 34 34
 34 34 34 207 207 207 215 215 215 215 49 153 153 153 153 153 237 237 150 150
 150 93 93 93 93 93 158 34 34 34 34 34 207 207 207 215 215 215 215 49
 49 153 153 153 237 237 237 196 196 196 93 93 93 93 93 233 34 34 34 129
 129 207 207 215 215 215 215 49 49 49 49 153 237 237 237 237 196 196 196 196
 93 93 93 93 93 174 174 174 129 129 129 215 215 215 215 215 215 49 49 49
 237 237 237 237 196 196 196 196 196 164 164 164 164 164 174 174 174 129 129 129
 215 215 33 33 215 215 15 15 15 15 237 237 237 196 196 196 196 196 164 164
 164 164 170 170 174 174 174 129 129 7 7 7 7 7 7 15 15 15 15 237
 237 196 196 196 196 196 196 90 164 246 246 170 170 170 174 174 129 129 7 7
 7 7 7 7 15 15 15 15 156 156 156 196 196 196 196 90 90 90 246 246
 170 170 170 170 174 129 129 7 7 7 80 80 80 80 76 76 156 156 156 156
 185 185 185 90 90 90 90 246 246 170 170 170 152 223 223 223 143 7 80 80
 80 80 76 76 76 156 156 156 156 185 185 185 90 90 90 90 90 95 95 95
 152 152 223 223 143 143 143 80 80 80 80 76 76 76 38 156 156 156 185 185
 185 90 90 90 90 85 95 95 95 95 152 223 143 143 143 143 80 80 80 80
 76 76 76 38 38 156 156 185 185 185 159 90 90 85 85 95 95 95 95 95
 223 143 143 143 143 127 127 127 80 76 76 76 38 38 107 107 185 185 159 159
 159 159 51 95 95 95 95 95 95 95 143 143 143 143 127 127 127 127 76 76
 76 76 38 173 107 185 159 159 159 159 159 51 95 95 95 95 60 60 60 143
 143 143 127 127 127 127 127 76 76 76 76 162 162 162 162 159 159 159 159 159
 51 26 26 26 60 60 60 60 60 143 143 127 127 127 127 127 110 110 162 162
 162 162 162 162 159 159 159 159 159 51 26 26 26 60 60 60 60 60 60 143
 127 127 110 110 110 110 110 162 162 162 162 162 162 162 159 159 159 159 51 26
 26 26 60 60 60 60 60 60 60 127 110 110 110 110 110 110 78 162 162 162
 162 162 162 166 166 166 166 166 26 202 202 202 60 60 60 60 136 136 136 110
 110 110 110 110 78 78 162 162 162 162 162 162 154 154 154 154 154 154 202 202
 202 202 202 136 136 136 136 136 110 110 110 110 110 78 78 78 78 162 162 162
 154 154 154 154 154 154 154 202 202 202 202 202 136 136 136 136 136 139 110 110
 110 78 78 78 78 78 78 162 162 140 140 154 154 154 154 154 202 202 202 202
 202 6 6 6 216 216 139 139 139 78 78 78 78 78 78 235 235 140 140 144
 144 144 144 144 144 202 202 202 202 6 6 6 6 6 216 139 139 8 78 78
 78 78 78 235 235 235 235 140 144 144 144 144 144 144 202 202 4 4 6 6
 6 6 6 216 216 8 8 8 8 78 78 235 235 235 235 235 235 144 144 144
 144 144 67 67 67 4 4 4 6 6 6 6 216 8 8 8 8 8 8 8
 235 235 235 235 235 235 144 144 67 67 67 67 67 67 4 4 4 6 45 45
 6 216 8 8 8 8 8 8 8 235 235 235 235 235 235 235 67 67 67 67
 67 67 67 34 45 45 45 45 45 45 45 8 8 8 8 8 8 8 155 235
 235 235 235 235 36 67 67 67 67 67 67 67 34 34 45 45 45 45 207 207
 207 8 8 8 8 8 8 103 103 235 235 235 36 36 67 67 67 67 67 67
 158 34 34 34 45 45 207 207 207 207 8 8 8 8 8 153 153 153 234 234
 36 36 36 36 67 67 67 67 67 158 34 34 34 34 207 207 207 207 207 215
 8 8 8 153 153 153 153 153 36 36 36 36 36 93 93 93 93 93 158 34
 34 34 34 207 207 207 207 215 215 215 215 215 153 153 153 153 153 36 36 36
 36 36 93 93 93 93 93 93 34 34 34 34 34 207 207 207 215 215 215 215
 49 116 153 153 153 153 237 196 196 196 196 93 93 93 93 93 93 81 34 174
 34 40 207 207 215 215 215 215 215 49 116 116 116 153 237 237 196 196 196 196
 196 164 164 164 164 164 174 174 174 174 174 40 215 215 215 215 215 215 49 116
 116 116 124 237 196 196 196 196 196 196 164 164 164 164 164 174 174 174 174 174
 174 215 215 215 215 215 215 15 116 124 124 124 124 196 196 196 196 196 196 164
 164 164 164 13 174 174 174 174 174 174 7 7 7 7 7 7 15 124 124 124
 124 124 196 196 196 196 196 196 164 164 164 13 13 170 174 174 174 174 174 7
 7 7 7 7 7 7 76 124 156 156 156 156 196 196 196 196 90 90 90 13
 13 13 170 170 174 174 174 174 7 7 7 7 7 7 76 76 76 156 156 156
 156 156 196 196 90 90 90 90 90 13 13 170 152 152 152 152 152 7 7 80
 80 80 80 76 76 76 156 156 156 156 156 185 196 90 90 90 90 90 95 95
 95 152 152 152 152 143 143 143 80 80 80 76 76 76 76 76 156 156 156 156
 185 185 90 90 90 90 90 95 95 95 95 152 152 204 143 143 143 80 80 80
 76 76 76 76 76 173 173 173 185 185 185 90 90 90 90 95 95 95 95 95
 95 204 204 143 143 143 127 127 127 76 76 76 76 76 173 173 173 173 173 159
 159 159 51 51 95 95 95 95 95 95 204 204 204 143 143 127 127 127 76 76
 76 76 76 173 173 173 173 159 159 159 159 51 51 51 95 95 95 95 60 60
 204 204 143 127 127 127 127 127 76 76 76 76 162 162 162 162 159 159 159 159
 51 51 51 26 26 60 60 60 60 60 204 143 127 127 127 127 110 76 76 162
 162 162 162 162 162 162 159 159 159 51 51 51 26 26 60 60 60 60 60 60
 143 127 127 110 110 110 110 110 162 162 162 162 162 162 162 159 159 159 51 51
 51 26 26 60 60 60 60 60 60 60 127 110 110 110 110 110 110 162 162 162
 162 162 162 162 162 166 166 51 51 51 202 202 202 60 60 60 60 60 60 127
 110 110 110 110 110 110 162 162 162 162 162 162 162 154 154 154 154 154 202 202
 202 202 202 202 136 136 136 136 136 110 110 110 110 110 110 78 162 162 162 162
 162 162 154 154 154 154 154 202 202 202 202 202 202 136 136 136 136 139 139 110
 110 110 110 78 78 78 78 162 162 162 162 140 154 154 154 154 202 202 202 202
 202 202 6 6 6 6 216 139 139 139 139 35 35 35 235 235 235 235 235 144
 144 144 144 144 144 144 202 202 4 4 4 4 6 6 6 139 139 139 66 66
 35 35 35 235 235 235 235 235 144 144 144 144 144 144 144 144 4 4 4 4
 4 6 6 6 6 66 66 66 66 37 37 37 235 235 235 235 235 235 144 144
 144 144 144 144 67 4 4 4 4 4 6 6 6 6 66 66 66 8 8 37
 37 235 235 235 235 235 235 144 144 144 144 67 67 67 4 4 4 4 4 45
 45 45 45 8 8 8 8 8 8 37 235 235 235 235 235 235 144 144 67 67
 67 67 67 67 96 96 45 45 45 45 45 45 8 8 8 8 8 8 8 235
 235 235 235 235 235 36 67 67 67 67 67 67 67 96 96 45 45 45 45 45
 207 207 8 8 8 8 8 8 234 234 234 234 36 36 36 36 67 67 67 67
 67 81 96 96 45 45 45 45 207 207 207 8 8 8 8 8 153 153 234 234
 234 36 36 36 36 36 67 67 81 81 81 81 34 45 45 45 207 207 207 207
 215 215 8 8 153 153 153 153 234 36 36 36 36 36 36 93 93 81 81 81
 81 34 34 34 207 207 207 207 215 215 215 215 215 153 153 153 153 153 36 36
 36 36 36 36 93 93 81 81 81 81 34 34 40 40 207 207 207 215 215 215
 215 116 116 116 116 153 153 36 36 36 36 196 93 93 93 81 81 81 81 174
 174 40 40 40 215 215 215 215 215 215 116 116 116 116 116 124 196 196 196 196
 196 196 164 164 164 81 81 174 174 174 174 40 40 215 215 215 215 215 215 116
 116 116 116 124 124 196 196 196 196 196 196 164 164 164 164 81 174 174 174 174
 174 40 215 215 215 215 215 215 116 116 116 124 124 124 196 196 196 196 196 196
 164 164 164 164 13 174 174 174 174 174 40 215 215 7 7 7 7 7 124 124
 124 124 124 196 196 196 196 196 196 164 164 164 13 13 174 174 174 174 174 174
 7 7 7 7 7 7 7 124 124 124 156 156 156 196 196 196 196 90 90 90
 13 13 13 13 174 174 174 174 174 7 7 7 7 7 7 76 76 76 156 156
 156 156 156 196 196 90 90 90 90 13 13 13 152 152 152 152 152 152 7 7
 7 7 7 76 76 76 76 156 156 156 156 156 196 196 90 90 90 90 90 95
 95 95 152 152 152 152 204 204 7 80 80 76 76 76 76 76 76 156 156 156
 156 156 196 90 90 90 90 95 95 95 95 95 152 152 204 204 204 204 80 80
 76 76 76 76 76 76 173 173 173 236 236 236 90 90 90 90 95 95 95 95
 95 95 204 204 204 204 204 127 127 14 76 76 76 76 76 173 173 173 236 236
 236 159 51 51 51 95 95 95 95 95 95 204 204 204 204 204 127 127 14 14
 76 76 76 76 173 173 173 236 236 159 159 51 51 51 51 95 95 95 95 95
 204 204 204 204 204 127 127 14 14 14 76 76 76 162 162 162 162 162 159 159
 51 51 51 51 51 210 210 60 60 60 204 204 204 127 127 127 110 110 106 106
 106 162 162 162 162 162 162 159 159 159 51 51 51 210 210 210 60 60 60 60
 204 204 127 110 110 110 110 110 106 106 162 162 162 162 162 162 162 182 182 51
 51 51 51 210 210 60 60 60 60 60 204 127 139 110 110 110 110 110 106 162
 162 162 162 162 162 162 182 182 182 51 51 51 202 202 60 60 60 60 60 204
 139 139 110 110 110 110 110 106 162 162 162 162 162 162 162 182 182 182 51 51
 202 202 202 202 202 4 136 136 139 139 139 139 110 110 110 110 106 162 162 162
 162 162 162 162 144 154 154 144 202 202 202 202 202 202 4 4 136 139 139 139
 139 139 110 110 110 78 162 162 162 162 162 162 144 144 144 144 144 144 202 202
 202 202 4 4 4 6 6 139 139 139 139 139 35 35 35 35 235 235 235 235
 144 144 144 144 144 144 144 188 4 4 4 4 4 4 4 4 139 139 66 66
 66 35 35 35 35 235 235 235 235 144 144 144 144 144 144 144 144 4 4 4
 4 4 4 4 6 139 66 66 66 66 37 37 37 235 235 235 235 235 144 144
 144 144 144 144 144 144 4 4 4 4 4 4 4 6 139 66 66 66 66 37
 37 37 235 235 235 235 235 235 144 144 144 144 144 144 144 4 4 4 4 4
 45 45 45 45 8 8 8 8 8 37 37 235 235 235 235 235 235 11 11 11
 11 11 11 67 96 96 96 96 45 45 45 45 45 8 8 8 8 8 8 37
 235 235 235 235 235 235 11 11 11 11 11 11 67 96 96 96 96 45 45 45
 45 207 207 8 8 8 8 8 37 234 234 234 234 36 36 36 36 11 11 11
 81 81 81 96 96 96 45 45 45 207 207 207 8 8 8 8 8 234 234 234
 234 234 36 36 36 36 36 11 81 81 81 81 81 96 96 45 45 207 207 207
 207 215 8 8 8 8 153 234 234 234 234 36 36 36 36 36 81 81 81 81
 81 81 81 96 45 207 207 207 207 215 215 215 215 215 116 116 116 234 234 36
 36 36 36 36 36 81 81 81 81 81 81 81 40 40 40 40 207 207 215 215
 215 215 116 116 116 116 116 234 36 36 36 36 36 36 81 81 81 81 81 81
 81 40 40 40 40 40 215 215 215 215 215 116 116 116 116 116 124 196 196 196
 196 196 196 164 164 81 81 81 81 174 174 40 40 40 40 215 215 215 215 215
 116 116 116 116 124 124 196 196 196 196 196 42 164 164 164 164 81 174 174 174
 174 40 40 40 215 215 215 215 215 116 116 124 124 124 124 196 196 196 196 196
 42 164 164 164 164 13 174 174 174 174 174 40 40 215 7 7 7 7 114 124
 124 124 124 124 196 196 196 196 196 42 164 164 164 13 13 174 174 174 174 174
 40 7 7 7 7 7 7 114 124 57 57 57 156 156 196 196 196 196 90 90
 90 13 13 13 13 174 174 174 174 174 7 7 7 7 7 7 114 76 57 57
 156 156 156 156 196 196 90 90 90 90 13 13 13 13 152 152 152 152 204 7
 7 7 7 7 76 76 76 208 208 156 156 156 156 236 196 90 90 90 90 90
 95 95 95 152 152 152 204 204 204 7 7 80 76 76 76 76 76 208 156 156
 156 236 236 236 90 90 90 90 95 95 95 95 95 152 152 204 204 204 204 14
 14 14 76 76 76 76 76 173 173 236 236 236 236 236 90 90 238 238 95 95
 95 95 95 204 204 204 204 204 127 14 14 14 76 76 76 76 173 173 236 236
 236 236 236 51 51 51 238 95 95 95 95 95 204 204 204 204 204 14 14 14
 14 14 76 76 76 173 173 236 236 236 236 236 51 51 51 51 238 95 95 95
 95 204 204 204 204 204 14 14 14 14 14 14 76 76 162 162 162 162 230 230
 51 51 51 51 51 210 210 210 210 210 204 204 204 204 204 14 14 14 14 106
 106 106 162 162 162 162 162 162 162 182 182 51 51 51 210 210 210 210 210 60
 204 204 204 204 139 110 110 110 106 106 106 162 162 162 162 162 162 162 182 182
 182 51 51 210 210 210 210 210 60 60 204 204 204 139 139 110 110 106 106 106
 162 162 162 162 162 162 182 182 182 182 51 188 188 210 210 210 210 60 60 204
 139 139 139 139 110 110 110 106 106 162 162 162 162 162 162 162 182 182 182 188
 188 188 188 202 202 4 4 4 4 139 139 139 139 139 110 110 110 106 162 162
 162 162 162 162 162 182 182 188 188 188 188 188 202 4 4 4 4 4 139 139
 139 139 139 110 110 35 35 162 162 162 162 162 162 144 144 144 144 144 188 188
 188 4 4 4 4 4 4 139 139 139 139 139 139 35 35 35 35 35 235 235
 144 144 144 144 144 144 144 188 188 4 4 4 4 4 4 4 4 139 131 131
 66 66 35 35 35 35 235 235 235 235 144 144 144 144 144 144 144 188 4 4
 4 4 4 4 4 4 139 121 121 66 66 37 37 37 37 235 235 235 235 144
 144 144 144 144 144 144 4 4 4 4 4 4 4 4 4 121 121 121 66 66
 37 37 37 37 235 235 235 235 235 144 144 144 144 144 144 4 4 4 4 4
 4 4 45 45 121 121 121 66 66 37 37 37 37 235 226 226 226 11 11 11
 11 11 11 11 11 96 96 96 96 96 45 45 45 121 8 8 205 205 205 37
 37 37 226 226 226 226 11 11 11 11 11 11 11 11 96 96 96 96 96 45
 45 45 207 207 8 8 205 205 8 37 234 234 234 234 234 36 36 11 11 11
 11 11 81 81 96 96 96 96 45 45 207 207 207 8 8 8 8 8 234 234
 234 234 234 36 36 36 36 11 11 11 81 81 81 81 96 96 96 45 207 207
 207 207 215 8 8 8 8 234 234 234 234 234 36 36 36 36 36 81 81 81
 81 81 81 81 96 96 207 207 207 207 215 215 215 215 215 116 116 234 234 234
 36 36 36 36 36 36 81 81 81 81 81 81 81 40 40 40 40 207 207 215
 215 215 215 116 116 116 116 116 234 36 36 36 36 36 36 81 81 81 81 81
 81 81 40 40 40 40 40 215 215 215 215 215 116 116 116 116 124 124 36 196
 196 196 196 42 42 81 81 81 81 81 174 40 40 40 40 40 215 215 215 215
 215 116 116 116 124 124 124 196 196 196 196 42 42 42 164 164 81 81 174 174
 174 40 40 40 40 215 215 215 114 114 114 124 124 124 124 124 124 196 196 196
 42 42 42 164 164 164 13 174 174 174 174 40 40 40 215 7 7 114 114 114