# vtk DataFile Version 2.0
Data set from ImportExport Version 6.5.171.b0b162591
ASCII

DATASET RECTILINEAR_GRID
DIMENSIONS 30 30 30
X_COORDINATES 30 float
-1.250000 1.250000 3.750000 6.250000 8.750000 11.250000 13.750000 16.250000 18.750000 21.250000 23.750000 26.250000 28.750000 31.250000 33.750000 36.250000 38.750000 41.250000 43.750000 46.250000 48.750000 
51.250000 53.750000 56.250000 58.750000 61.250000 63.750000 66.250000 68.750000 71.250000 
Y_COORDINATES 30 float
-1.250000 1.250000 3.750000 6.250000 8.750000 11.250000 13.750000 16.250000 18.750000 21.250000 23.750000 26.250000 28.750000 31.250000 33.750000 36.250000 38.750000 41.250000 43.750000 46.250000 48.750000 
51.250000 53.750000 56.250000 58.750000 61.250000 63.750000 66.250000 68.750000 71.250000 
Z_COORDINATES 30 float
-1.250000 1.250000 3.750000 6.250000 8.750000 11.250000 13.750000 16.250000 18.750000 21.250000 23.750000 26.250000 28.750000 31.250000 33.750000 36.250000 38.750000 41.250000 43.750000 46.250000 48.750000 
51.250000 53.750000 56.250000 58.750000 61.250000 63.750000 66.250000 68.750000 71.250000 
CELL_DATA 24389
SCALARS FeatureIds int 1
LOOKUP_TABLE default
 29 68 68 68 196 196 196 196 196 196 196 36 36 138 138 138 138 41 41 41
 41 153 153 153 153 29 29 29 29 29 68 68 68 196 196 196 196 196 196 52
 36 36 36 138 138 41 41 41 41 180 180 180 180 180 29 29 29 29 29 68
 68 68 196 196 196 196 196 52 52 36 36 36 36 41 41 41 243 243 243 180
 180 180 180 29 29 29 29 29 68 68 68 196 196 196 196 52 52 52 36 36
 36 243 243 243 243 243 243 243 180 180 180 124 29 69 69 69 29 68 68 68
 130 130 130 130 52 52 52 36 36 36 243 243 243 243 243 243 243 243 180 124
 104 69 69 69 69 116 116 116 130 130 130 130 130 130 52 52 36 36 36 243
 243 243 243 243 243 243 243 180 104 104 104 69 69 69 116 116 116 116 130 130
 130 130 130 52 52 36 36 243 243 243 243 243 243 243 243 243 7 104 135 135
 135 135 116 116 116 116 116 116 130 130 130 130 65 65 65 121 243 243 243 243
 243 243 243 7 7 7 7 135 135 135 135 116 116 116 116 116 116 146 146 65
 65 65 65 65 121 121 121 243 243 243 243 7 7 7 7 7 135 135 135 135
 116 116 116 116 116 146 146 146 65 65 65 65 65 121 121 121 121 243 243 7
 7 7 7 7 7 135 135 135 135 116 116 116 116 116 146 146 146 146 65 65
 65 65 121 121 121 121 243 243 7 7 7 7 7 7 135 135 135 135 116 116
 116 116 146 146 146 146 146 65 65 65 65 121 121 121 121 121 222 222 222 222
 222 222 222 135 135 135 135 116 85 85 85 146 146 146 146 146 146 65 65 245
 121 121 127 127 127 127 222 222 222 222 222 222 135 135 135 64 116 85 85 85
 146 146 146 146 146 37 37 37 37 127 127 127 127 127 127 202 202 202 222 222
 222 64 64 64 64 64 210 210 210 146 146 146 146 37 37 37 37 209 209 127
 127 127 127 127 202 202 202 202 222 150 150 64 64 64 64 210 210 210 210 146
 146 37 37 37 37 37 209 209 127 127 127 127 127 202 202 202 202 150 150 150
 150 64 64 64 210 210 210 210 210 37 37 37 37 37 37 37 209 127 127 127
 127 127 202 202 202 150 150 150 150 150 131 175 210 210 210 210 210 210 17 17
 17 17 17 17 37 127 127 127 127 127 127 202 150 150 150 150 150 150 150 175
 175 175 210 210 210 84 84 84 17 17 17 17 17 17 127 127 127 127 127 57
 57 57 150 150 150 150 150 150 131 175 210 210 105 105 105 105 105 17 17 17
 17 140 140 140 66 66 66 66 57 57 57 57 150 150 204 204 204 204 175 210
 105 105 105 105 105 105 17 17 140 140 140 140 140 66 66 66 66 66 57 57
 57 150 204 204 204 204 204 204 210 105 105 105 105 105 105 140 140 140 140 140
 140 140 66 66 66 66 66 57 57 227 227 204 204 204 204 204 204 204 105 105
 105 105 105 105 140 140 140 140 140 140 140 66 66 66 66 66 66 227 227 227
 227 204 204 204 204 204 204 105 105 105 105 105 105 140 140 140 140 216 216 216
 66 66 66 66 60 60 227 227 227 227 227 204 204 204 204 204 105 105 105 105
 105 105 216 216 216 216 216 216 216 216 66 60 60 60 60 227 227 227 227 227
 227 227 227 227 227 105 105 105 105 105 216 216 216 216 216 216 216 216 216 138
 60 60 60 60 60 227 227 227 227 227 227 227 29 29 105 105 105 105 196 196
 196 216 216 216 216 216 216 138 138 138 60 60 60 60 227 227 227 227 227 80
 80 29 29 196 196 196 196 196 196 196 196 196 216 216 216 138 138 138 138 138
 60 60 60 227 227 227 153 80 80 80 29 29 196 196 196 196 196 196 196 196
 196 196 196 216 138 138 138 138 138 138 60 60 153 153 153 153 153 80 29 29
 29 29 68 68 205 205 196 196 196 196 196 196 196 54 54 54 138 138 41 41
 41 41 153 153 153 29 29 29 29 29 29 68 68 205 205 196 196 196 196 196
 52 36 36 54 54 54 54 41 41 243 243 124 124 124 124 29 29 29 29 29
 68 68 205 205 196 196 196 196 52 36 36 36 36 54 54 243 243 243 243 243
 124 124 124 124 29 29 29 29 29 68 68 205 205 196 196 196 52 52 36 36
 36 36 243 243 243 243 243 243 243 124 124 124 124 104 29 29 29 29 116 68
 205 130 130 130 130 52 52 52 36 36 36 243 243 243 243 243 243 243 124 124
 124 104 104 104 104 69 116 116 116 130 130 130 130 130 130 52 52 36 36 36
 243 243 243 243 243 243 243 124 124 104 104 104 104 104 104 116 116 116 116 130
 130 130 130 130 72 72 72 36 243 243 243 243 243 243 243 243 132 132 104 104
 104 104 104 116 116 116 116 116 116 130 130 130 130 72 72 72 121 243 243 243
 243 243 243 243 7 7 7 7 135 135 135 135 116 116 116 116 116 116 116 130
 130 65 65 65 65 121 121 243 243 243 243 243 7 7 7 7 7 135 135 135
 135 116 116 116 116 116 146 146 146 65 65 65 65 65 121 121 121 243 243 243
 243 7 7 7 7 7 135 135 135 135 116 116 116 116 116 146 146 146 146 65
 65 65 65 121 121 121 201 201 243 7 7 7 7 7 7 135 135 135 135 116
 116 116 116 146 146 146 146 146 65 65 65 245 121 121 121 127 127 75 75 7
 7 7 7 7 135 135 135 135 116 116 116 116 146 146 146 146 146 146 37 245
 245 245 127 127 127 127 235 75 75 184 222 222 222 135 64 64 64 64 64 116
 116 146 146 146 146 146 37 37 37 245 245 127 127 127 127 235 202 202 202 202
 222 222 64 64 64 64 64 210 210 210 146 146 146 146 37 37 37 37 37 245
 127 127 127 127 235 202 202 202 202 202 150 64 64 64 64 64 210 210 210 210
 210 146 37 37 37 37 37 37 127 127 127 127 127 235 202 202 202 202 150 150
 131 131 64 64 64 210 210 210 210 210 210 37 37 37 37 37 37 127 127 127
 127 127 235 202 202 202 202 150 150 131 131 131 131 210 210 210 210 210 210 17
 17 17 17 17 17 17 127 127 127 127 127 235 202 202 202 150 150 150 131 131
 131 131 210 210 210 210 210 84 17 17 17 17 17 17 17 17 127 127 127 127
 57 57 57 57 150 150 150 131 131 131 131 210 210 210 105 105 105 105 17 17
 17 17 17 140 140 66 66 66 66 57 57 57 57 57 150 150 204 131 131 131
 210 210 105 105 105 105 105 17 17 140 140 140 140 140 66 66 66 66 66 57
 57 57 57 227 204 204 204 204 204 210 105 105 105 105 105 105 140 140 140 140
 140 140 140 66 66 66 66 66 57 57 227 227 227 227 204 204 204 204 210 105
 105 105 105 105 105 140 140 140 140 140 140 140 66 66 66 66 66 66 227 227
 227 227 227 204 204 204 204 27 105 105 105 105 105 105 140 140 140 140 140 140
 140 66 66 66 66 60 60 227 227 227 227 227 227 227 227 227 27 27 105 105
 105 105 105 140 140 216 216 216 216 216 216 66 60 60 60 60 227 227 227 227
 227 227 227 227 227 27 27 105 105 105 105 105 216 216 216 216 216 216 216 138
 138 60 60 60 60 60 227 227 227 227 227 227 227 29 29 27 105 105 105 105
 196 196 216 216 216 216 216 216 138 138 138 60 60 60 60 227 227 227 227 227
 80 29 29 29 16 16 196 196 196 196 196 196 196 216 216 216 138 138 138 138
 138 60 60 60 227 227 227 227 80 80 29 29 29 16 16 196 196 196 196 196
 196 196 196 196 216 138 138 138 138 138 138 60 60 227 153 153 153 153 29 29
 29 29 29 29 205 205 205 205 196 196 196 196 196 196 54 54 54 54 54 54
 118 118 124 124 124 124 124 29 29 29 29 29 29 205 205 205 205 196 196 196
 196 52 36 54 54 54 54 54 54 243 243 124 124 124 124 124 29 29 29 29
 29 29 205 205 205 205 196 196 196 52 36 36 36 54 54 54 54 243 243 243
 124 124 124 124 124 124 29 29 29 29 29 205 205 205 205 196 196 52 52 36
 36 36 36 54 243 243 243 243 243 124 124 124 124 124 124 104 29 29 29 29
 5 205 205 130 130 130 52 52 36 36 36 36 243 243 243 243 243 243 243 124
 124 124 104 104 104 104 29 116 116 5 5 5 130 130 130 130 52 36 36 36
 36 243 243 243 243 243 243 243 124 124 104 104 104 104 104 104 116 116 5 5
 5 130 130 130 72 72 72 72 36 243 243 243 243 243 243 243 132 132 132 104
 104 104 104 104 104 116 116 116 5 5 5 130 72 72 72 72 72 72 243 243
 243 243 243 243 243 132 132 132 132 104 104 104 104 116 116 116 116 116 116 146
 146 72 72 72 72 72 72 201 243 243 243 243 243 7 7 7 7 7 135 135
 135 135 116 116 116 116 116 146 146 146 146 65 65 65 65 201 201 201 201 201
 201 243 7 7 7 7 7 135 135 135 135 116 116 116 116 116 146 146 146 146
 65 65 65 65 201 201 201 201 201 201 7 7 7 7 7 7 135 135 135 135
 116 116 116 116 146 146 146 146 146 146 245 245 245 245 245 201 201 235 75 75
 75 7 7 7 7 135 135 135 64 64 64 116 116 146 146 146 146 146 146 245
 245 245 245 245 127 127 235 235 75 75 184 184 222 222 135 64 64 64 64 64
 64 116 146 146 146 146 146 37 37 245 245 245 245 127 127 235 235 75 75 184
 184 184 184 64 64 64 64 64 64 64 210 146 146 146 146 37 37 37 37 245
 245 127 127 127 235 235 235 202 202 202 202 202 64 64 64 64 64 210 210 210
 210 244 244 37 37 37 37 37 37 245 127 127 127 235 235 235 202 202 202 150
 131 131 131 64 64 64 210 210 210 210 244 244 37 37 37 37 37 37 245 127
 127 127 235 235 235 202 202 202 150 131 131 131 131 131 210 210 210 210 210 244
 244 17 17 17 17 17 37 127 127 127 127 235 235 235 202 202 202 150 131 131
 131 131 131 210 210 210 210 210 105 17 17 17 17 17 17 17 17 127 127 127
 235 235 57 57 57 57 150 131 131 131 131 131 210 210 210 105 105 105 105 17
 17 17 17 17 140 140 66 66 66 66 57 57 57 57 57 150 131 131 131 131
 131 210 105 105 105 105 105 105 17 140 140 140 140 140 140 66 66 66 66 66
 57 57 57 57 227 204 204 107 131 131 210 105 105 105 105 105 105 140 140 140
 140 140 140 140 66 66 66 66 66 66 57 227 227 227 227 107 107 107 107 107
 105 105 105 105 105 105 140 140 140 140 140 140 140 66 66 66 66 66 66 227
 227 227 227 227 227 107 107 107 27 27 105 105 105 105 105 105 140 140 140 140
 140 140 66 66 66 66 60 60 227 227 227 227 227 227 227 107 107 27 27 27
 105 105 105 105 105 140 216 216 216 216 216 238 66 60 60 60 60 227 227 227
 227 227 227 227 107 107 27 27 27 38 38 38 38 216 216 216 216 216 216 216
 138 138 138 60 60 60 60 227 227 227 227 227 227 107 29 27 27 27 38 38
 38 196 196 196 216 216 216 216 138 138 138 138 138 60 60 60 227 227 227 227
 227 227 29 29 29 16 16 205 205 205 196 196 196 196 196 216 216 138 138 138
 138 138 60 60 60 227 227 227 227 227 29 29 29 29 16 16 205 205 205 205
 196 196 196 196 196 196 54 54 54 138 138 138 60 60 227 227 153 153 29 29
 29 29 29 16 16 16 205 205 205 205 21 21 162 162 162 54 54 54 54 54
 118 118 118 124 124 124 124 124 29 29 29 29 16 16 16 205 205 205 205 21
 21 162 162 162 54 54 54 54 54 54 118 118 124 124 124 124 124 124 29 29
 29 16 16 16 205 205 205 205 21 21 162 162 162 54 54 54 54 54 54 243
 124 124 124 124 124 124 124 124 29 29 16 16 16 205 205 205 205 21 21 52
 36 36 36 54 54 54 243 243 243 243 124 124 124 124 124 124 104 104 29 16
 5 5 205 205 205 130 130 52 52 36 36 36 36 243 243 243 243 243 158 124
 124 124 124 124 104 104 104 104 5 5 5 5 5 5 130 130 130 72 72 36
 36 243 243 243 243 243 243 158 158 124 124 124 104 104 104 104 104 5 5 5
 5 5 5 130 72 72 72 72 72 72 243 243 243 243 243 243 158 132 132 132
 104 104 104 104 104 104 116 5 5 5 5 5 5 72 72 72 72 72 72 201
 201 201 243 243 243 132 132 132 132 132 104 104 104 104 116 116 116 116 5 5
 5 5 72 72 72 72 72 201 201 201 201 201 201 243 132 132 132 132 132 135
 135 135 135 116 116 116 116 116 5 5 122 72 72 72 72 72 201 201 201 201
 201 201 201 7 7 7 7 7 135 135 135 135 116 116 116 116 116 146 146 122
 122 122 122 245 245 201 201 201 201 201 201 109 109 7 7 7 7 135 135 135
 135 116 116 116 116 116 146 146 122 122 122 245 245 245 245 201 201 201 201 201
 184 184 184 7 7 7 135 135 64 64 64 64 116 116 146 146 146 6 6 6
 245 245 245 245 245 201 235 235 235 184 184 75 75 75 75 64 64 64 64 64
 64 64 116 146 146 146 6 6 6 245 245 245 245 245 127 235 235 235 75 75
 75 75 75 75 64 64 64 64 64 64 64 244 244 244 244 6 6 6 37 245
 245 245 245 127 235 235 235 235 184 184 75 75 75 64 64 64 64 64 64 64
 210 244 244 244 244 6 37 37 37 245 245 127 127 127 235 235 235 235 202 202
 202 131 131 131 64 64 64 210 210 210 244 244 244 244 37 37 37 37 37 245
 127 127 127 235 235 235 235 202 202 131 131 131 131 131 131 64 210 210 210 244
 244 244 244 17 17 17 17 37 127 127 127 235 235 235 235 235 202 202 131 131
 131 131 131 131 210 210 210 210 105 105 244 17 17 17 17 17 17 66 66 127
 235 235 235 57 57 57 57 131 131 131 131 131 131 131 210 210 105 105 105 81
 81 17 17 17 140 140 66 66 66 66 66 57 57 57 57 57 131 131 131 131
 131 131 131 105 105 105 105 105 81 81 140 140 140 140 140 140 66 66 66 66
 66 57 57 57 57 107 107 107 107 107 107 107 27 105 105 105 105 81 81 140
 140 140 140 140 140 66 66 66 66 66 66 57 227 227 227 107 107 107 107 107
 107 27 27 38 38 105 81 81 140 140 140 140 140 140 238 66 66 66 66 66
 227 227 227 227 227 107 107 107 107 27 27 27 38 38 38 38 81 140 140 140
 140 140 238 238 238 238 238 238 60 227 227 227 227 227 107 107 107 107 27 27
 27 38 38 38 38 81 148 148 148 148 216 238 238 238 238 238 60 60 227 227
 227 227 227 107 107 107 107 27 27 27 38 38 38 38 148 148 148 148 148 148
 238 238 238 238 60 60 60 60 227 227 227 227 227 107 107 107 27 27 27 38
 38 38 38 148 148 148 148 148 148 138 138 138 138 138 118 118 118 227 227 227
 227 227 48 29 181 29 16 16 16 205 205 205 196 196 148 148 162 162 54 54
 54 138 118 118 118 118 118 227 227 227 48 29 29 29 29 16 16 16 205 205
 205 21 21 21 196 162 162 54 54 54 54 54 118 118 118 118 227 153 153 29
 29 29 29 29 16 16 16 205 205 205 205 21 21 162 162 162 162 54 54 54
 54 118 118 118 124 124 124 124 124 124 29 29 16 16 16 16 205 205 205 205
 21 21 162 162 162 162 54 54 54 54 54 118 118 124 124 124 124 124 124 124
 29 16 16 16 16 205 205 205 205 21 21 162 162 162 162 54 54 54 54 54
 158 124 124 124 124 124 124 124 124 29 16 16 16 16 205 205 205 186 21 21
 162 162 162 162 54 54 54 54 158 158 158 124 124 124 124 124 124 104 104 104
 16 16 16 5 186 186 186 186 186 52 36 36 144 144 144 243 243 158 158 158
 158 124 124 124 124 104 104 104 104 5 5 5 5 5 5 5 130 130 72 72
 144 144 144 144 243 243 158 158 158 158 158 124 124 104 104 104 104 104 5 5
 5 5 5 5 5 72 72 72 72 72 144 144 144 201 243 158 158 158 158 132
 132 104 104 104 104 104 104 5 5 5 5 5 5 5 72 72 72 72 72 201
 201 201 201 201 201 158 158 132 132 132 132 104 104 104 104 104 5 5 5 5
 5 5 5 72 72 72 72 72 201 201 201 201 201 201 201 132 132 132 132 132
 135 135 135 135 116 116 5 5 5 5 5 122 122 122 72 72 201 201 201 201
 201 201 201 201 109 109 132 132 132 135 135 135 135 116 116 116 116 5 146 122
 122 122 122 122 122 201 201 201 201 201 201 201 109 109 109 109 7 7 135 135
 135 64 116 116 116 116 116 146 122 122 122 122 122 245 245 245 201 201 201 201
 201 109 109 109 109 109 109 135 64 64 64 64 64 64 116 146 146 122 6 6
 6 6 245 245 245 163 163 201 235 184 184 75 75 75 75 75 64 64 64 64
 64 64 64 244 244 244 244 6 6 6 6 245 245 245 163 163 235 235 235 184
 75 75 75 75 75 64 64 64 64 64 64 64 244 244 244 244 6 6 6 6
 245 245 245 163 163 235 235 235 235 75 75 75 75 64 64 64 64 64 64 64
 64 244 244 244 244 244 6 6 6 245 245 245 163 249 249 235 235 235 235 75
 202 202 131 131 131 131 64 64 192 192 244 244 244 244 244 244 37 37 37 245
 198 127 249 249 249 235 235 235 202 202 131 131 131 131 131 131 64 210 210 192
 244 244 244 244 244 17 17 17 166 198 249 249 249 249 235 235 235 235 235 131
 131 131 131 131 131 131 192 210 192 244 244 244 244 17 17 17 17 166 166 249
 249 249 249 235 235 235 57 57 131 131 131 131 131 131 131 192 210 105 81 81
 81 81 81 17 17 140 166 166 66 66 66 66 235 57 57 57 57 107 107 107
 107 107 107 107 27 27 105 81 81 81 81 81 140 140 140 140 166 66 66 66
 66 66 57 57 57 57 107 107 107 107 107 107 107 27 27 38 81 81 81 81
 81 140 140 140 140 238 238 238 238 238 238 238 57 227 227 227 107 107 107 107
 107 107 27 27 38 38 81 81 81 81 140 140 140 140 238 238 238 238 238 238
 238 227 227 227 227 107 107 107 107 107 27 27 27 38 38 38 38 81 123 148
 148 148 148 174 238 238 238 238 238 238 227 227 227 227 227 107 107 107 107 27
 27 27 38 38 38 38 81 148 148 148 148 148 174 238 238 238 238 238 60 227
 227 227 227 227 107 107 107 27 27 27 27 38 38 38 38 38 148 148 148 148
 148 174 238 238 238 238 118 118 118 200 200 200 200 48 48 48 27 27 27 27
 38 38 38 38 148 148 148 148 148 148 174 238 138 118 118 118 118 118 118 200
 200 200 48 48 181 181 181 16 16 16 205 205 205 21 148 148 148 148 148 54
 54 54 118 118 118 118 118 118 200 200 200 48 181 181 181 181 16 16 16 205
 205 205 21 21 21 162 162 162 54 54 54 54 118 118 118 118 118 200 200 200
 48 181 181 181 181 16 16 16 16 205 186 186 186 248 162 162 162 162 54 54
 54 214 118 118 118 170 170 170 170 170 170 170 16 16 16 16 16 16 205 186
 186 186 186 162 162 162 162 54 54 214 214 214 214 118 170 170 170 170 170 170
 170 16 16 16 16 16 16 186 186 186 186 186 162 162 162 162 54 54 214 214
 214 214 170 170 170 170 170 124 124 124 124 16 16 16 16 16 186 186 186 186
 186 162 162 162 144 144 214 214 214 214 158 158 170 170 170 124 124 124 194 194
 16 16 16 5 5 186 186 186 186 186 162 162 144 144 144 144 144 214 158 158
 158 158 170 124 124 194 194 194 194 194 5 5 5 5 5 5 5 186 186 72
 144 144 144 144 144 144 144 158 158 158 158 158 124 124 194 194 194 194 194 5
 5 5 5 5 5 5 5 72 72 72 144 144 144 144 201 201 158 158 158 158
 158 132 194 194 194 194 194 194 5 5 5 5 5 5 5 72 72 72 72 144
 144 144 201 201 201 201 158 158 158 132 132 132 194 194 194 194 194 5 5 5
 5 5 5 5 191 191 191 191 191 201 201 201 201 201 201 201 158 132 132 132
 132 194 194 194 194 116 5 5 5 5 5 5 122 122 191 191 191 191 201 201
 201 201 201 201 201 109 109 132 132 132 135 135 135 101 116 5 5 5 5 5
 122 122 122 122 191 191 191 237 201 201 201 201 201 109 109 109 109 109 109 135
 135 101 101 101 116 116 5 5 122 122 122 122 122 122 245 163 163 237 201 201
 137 137 109 109 109 109 109 109 101 101 101 101 64 64 64 244 244 6 6 6
 6 6 6 245 163 163 163 163 163 137 137 109 109 109 109 109 109 101 101 101
 64 64 64 64 244 244 244 244 6 6 6 6 245 163 163 163 163 163 235 235
 184 75 75 75 75 101 101 101 101 64 64 64 64 244 244 244 244 6 6 6
 6 245 163 163 163 163 249 249 235 235 75 75 75 75 101 101 101 101 101 101
 192 192 192 244 244 244 244 155 155 155 155 198 198 163 249 249 249 249 235 235
 75 75 75 131 131 131 101 101 101 192 192 192 244 244 244 244 155 155 155 155
 198 198 198 249 249 249 249 235 235 235 235 131 131 131 131 131 131 192 192 192
 192 244 244 244 244 155 155 155 166 166 198 249 249 249 249 249 235 235 235 179
 179 131 131 131 131 131 192 192 192 192 192 244 244 244 155 155 166 166 166 166
 19 249 249 249 249 235 53 53 179 179 179 131 131 131 131 192 192 192 192 81
 81 81 81 81 81 166 166 166 166 19 19 249 249 249 53 53 53 179 179 179
 107 107 107 107 107 27 27 81 81 81 81 81 81 81 166 166 166 166 19 238
 238 238 238 53 53 53 179 179 107 107 107 107 107 107 27 27 38 81 81 81
 81 81 123 123 166 166 166 238 238 238 238 238 238 53 227 179 179 107 107 107
 107 107 107 27 27 38 38 81 81 81 123 123 123 140 140 238 238 238 238 238
 238 238 238 200 227 107 107 107 107 107 107 27 27 27 38 38 38 38 123 123
 123 148 148 148 174 238 238 193 238 238 238 238 200 200 200 107 107 107 107 107
 27 27 27 38 38 38 38 123 123 148 148 148 148 174 174 238 238 238 238 238
 200 200 200 200 200 48 48 107 107 27 27 27 38 38 38 38 123 148 148 148
 148 148 174 174 174 238 238 118 118 200 200 200 200 200 48 48 48 48 27 27
 27 38 38 38 38 123 148 148 148 148 148 174 174 174 118 118 118 118 118 200
 200 200 200 48 48 181 181 181 16 16 16 16 205 205 186 148 148 148 148 148
 174 54 54 118 118 118 118 118 200 200 200 200 48 181 181 181 181 16 16 16
 16 205 205 186 248 248 162 162 162 54 54 54 54 118 118 118 118 118 200 200
 200 48 181 181 181 181 16 16 16 16 186 186 186 248 248 248 162 162 162 214
 214 214 214 118 118 118 170 170 170 170 170 170 181 181 16 16 16 16 16 186
 186 186 186 248 162 162 162 162 214 214 214 214 214 214 214 170 170 170 170 170
 170 170 181 16 16 16 16 186 186 186 186 186 186 162 162 162 162 214 214 214
 214 214 214 214 170 170 170 170 170 170 124 124 16 16 16 16 186 186 186 186
 186 186 162 162 162 144 144 144 214 214 214 158 158 170 170 170 170 170 170 194
 194 16 16 16 5 5 186 186 186 186 186 186 144 144 144 144 144 144 214 158
 158 158 158 170 170 170 194 194 194 194 194 5 5 5 5 5 5 186 186 186
 186 144 144 144 144 144 144 144 158 158 158 158 158 170 194 194 194 194 194 194
 5 5 5 5 5 5 5 191 191 191 144 144 144 144 144 144 144 158 158 158
 158 158 170 194 194 194 194 194 194 5 5 5 5 5 5 5 191 191 191 191
 144 144 144 201 201 201 201 158 158 158 158 132 194 194 194 194 194 194 5 5
 5 5 5 5 5 191 191 191 191 191 201 201 201 201 201 201 201 158 158 132
 132 194 194 194 194 46 46 5 5 5 5 5 5 122 122 191 191 191 191 237
 201 201 201 201 137 137 109 109 132 132 132 46 46 46 46 46 5 5 5 5
 230 122 122 122 122 191 191 191 237 237 201 137 137 137 109 109 109 109 109 109
 101 101 101 101 101 101 101 230 230 230 122 122 122 122 191 191 163 237 237 237
 137 137 137 109 109 109 109 109 109 101 101 101 101 101 101 101 230 230 230 230
 6 6 6 6 163 163 163 163 163 163 137 137 109 109 109 109 109 101 101 101
 101 101 101 101 101 230 230 230 230 6 6 6 6 163 163 163 163 163 163 163
 137 109 109 109 109 109 101 101 101 101 101 101 101 101 244 244 244 244 155 155
 155 155 163 163 163 163 163 163 249 249 235 75 75 75 75 101 101 101 101 101
 101 192 192 192 244 244 244 155 155 155 155 155 198 198 198 163 249 249 249 235
 235 75 75 179 179 101 101 101 101 101 192 192 192 244 244 244 155 155 155 155
 155 198 198 198 249 249 249 249 249 235 235 179 179 179 131 131 131 101 192 192
 192 192 192 244 244 155 155 155 155 166 166 198 198 249 249 249 249 249 53 53
 179 179 179 179 179 131 192 192 192 192 192 192 244 244 155 155 155 166 166 166
 166 19 19 249 249 249 53 53 53 179 179 179 179 179 131 192 192 192 192 192
 81 81 81 81 81 81 166 166 166 166 19 19 19 249 53 53 53 53 179 179
 179 179 107 107 107 192 192 192 192 81 81 81 81 81 123 166 166 166 166 19
 19 238 238 53 53 53 53 179 179 179 107 107 107 107 107 27 27 38 81 81
 81 81 123 123 123 166 166 125 125 125 238 238 238 53 53 53 179 179 179 107
 107 107 107 107 27 27 38 38 81 81 123 123 123 123 166 125 125 125 238 238
 238 238 238 200 200 200 179 107 107 107 107 107 27 27 27 38 38 38 123 123
 123 123 123 148 174 174 174 238 238 238 238 238 200 200 200 200 107 107 107 107
 107 27 27 27 38 38 38 123 123 123 123 148 148 174 174 174 174 238 238 238
 238 200 200 200 200 200 48 48 48 48 27 27 27 38 38 38 123 123 123 148
 148 148 148 174 174 174 238 238 118 118 200 200 200 200 200 48 48 48 48 181
 181 27 38 38 38 123 123 123 148 148 148 148 174 174 174 174 118 118 118 200
 200 200 200 200 48 48 181 181 181 181 181 16 16 186 186 248 248 248 148 148
 148 174 174 174 118 118 118 118 118 200 200 200 200 48 181 181 181 181 16 16
 16 16 186 186 248 248 248 248 248 162 174 214 214 214 118 118 118 118 200 200
 200 200 48 181 181 181 181 16 16 16 16 186 248 248 248 248 248 113 113 214
 214 214 214 214 214 214 214 170 170 170 170 170 170 181 181 181 16 16 16 16
 186 186 186 248 248 113 113 1 1 214 214 214 214 214 214 214 170 170 170 170
 170 170 181 181 16 16 16 16 186 186 186 186 186 186 113 113 1 1 1 214
 214 214 214 214 214 170 170 170 170 170 170 170 181 16 236 16 236 186 186 186
 186 186 186 113 113 1 1 144 144 214 214 214 214 158 170 170 170 170 170 170
 194 194 16 236 236 5 186 186 186 186 186 186 186 144 144 144 144 144 144 214
 214 158 158 158 170 170 170 170 194 194 194 194 5 5 5 5 5 5 186 186
 186 144 144 144 144 144 144 144 144 158 158 158 158 170 170 170 194 194 194 194
 194 5 5 5 5 5 5 5 191 191 144 144 144 144 144 144 144 144 158 158
 158 158 158 170 194 194 194 194 194 194 5 5 5 5 5 5 5 191 191 191
 191 144 144 144 144 201 201 201 158 158 158 158 67 139 194 194 46 46 46 5
 5 5 5 5 5 5 191 191 191 191 191 144 201 201 137 137 137 137 158 67
 67 67 139 139 46 46 46 46 46 5 5 5 5 5 122 191 191 191 191 191
 237 237 137 137 137 137 137 109 67 67 67 67 46 46 46 46 46 46 5 5
 230 230 230 230 122 191 191 191 191 237 237 237 137 137 137 137 109 109 67 67
 67 46 46 46 46 46 101 101 230 230 230 230 230 122 122 191 191 237 237 237
 237 137 137 137 137 109 109 109 109 101 101 101 101 101 101 101 101 230 230 230
 230 230 6 6 6 163 163 163 163 163 163 137 137 137 109 109 109 109 101 101
 101 101 101 101 101 101 230 230 230 230 230 155 155 155 163 163 163 163 163 163
 163 137 137 109 109 109 101 101 101 101 101 101 101 101 101 230 230 230 230 155
 155 155 155 163 163 198 163 163 163 163 249 235 75 75 75 101 101 101 101 101
 101 101 192 192 192 230 244 155 155 155 155 155 155 198 198 198 163 249 249 249
 235 235 53 53 179 101 101 101 101 101 101 192 192 192 192 244 155 155 155 155
 155 155 198 198 198 249 249 249 249 249 53 53 53 179 179 179 101 13 13 192
 192 192 192 192 62 62 155 155 155 155 166 166 166 19 249 249 249 249 53 53
 53 53 179 179 179 179 13 13 192 192 192 192 192 62 62 155 155 155 166 166
 166 166 19 19 249 249 53 53 53 53 53 179 179 179 179 13 13 192 192 192
 192 81 81 81 81 81 155 166 166 166 166 19 19 19 53 53 53 53 53 179
 179 179 179 179 107 13 192 192 192 192 81 81 81 81 123 123 166 166 166 166
 125 125 125 53 53 53 53 53 179 179 179 179 107 107 107 107 27 27 38 81
 81 81 123 123 123 123 166 166 125 125 125 125 238 53 53 53 53 179 179 179
 107 107 107 107 107 27 27 38 38 38 123 123 123 123 123 123 125 125 125 125
 238 238 238 53 53 53 200 179 70 70 70 70 70 70 27 27 38 38 38 123
 123 123 123 123 123 174 174 174 238 238 238 238 238 200 200 200 200 70 70 70
 70 70 27 27 27 38 38 38 123 123 123 123 123 148 174 174 174 174 238 238
 238 238 200 200 200 200 200 48 48 48 48 48 27 27 38 38 38 123 123 123
 123 148 148 174 174 15 174 174 238 118 118 200 200 200 200 200 48 48 48 48
 181 181 181 38 38 38 123 123 123 123 148 148 174 174 174 174 174 118 118 118
 200 200 200 200 200 48 48 48 181 181 181 181 16 38 248 248 248 248 248 248
 148 174 174 174 174 174 118 118 118 118 200 200 200 200 48 48 181 181 181 181
 16 16 16 248 248 248 248 248 248 248 248 174 214 214 214 241 118 118 118 200
 200 200 200 48 181 181 181 181 16 16 16 16 186 248 248 248 248 113 113 113
 214 214 214 214 214 214 214 188 188 188 170 170 170 170 181 181 181 16 236 236
 236 186 248 248 248 248 113 113 113 1 214 214 214 214 214 214 188 188 170 170
 170 170 170 170 181 181 236 236 236 236 186 186 186 248 113 113 113 1 1 1
 1 214 214 214 214 170 170 170 170 170 170 170 170 181 181 236 236 236 236 236
 186 186 186 113 113 113 1 1 1 1 214 214 214 214 170 170 170 170 170 170
 170 170 170 170 236 236 236 236 236 186 186 186 186 113 144 144 144 144 144 144
 214 214 158 158 170 170 170 170 170 170 194 194 194 236 236 236 236 236 186 186
 186 186 144 144 144 144 144 144 144 144 158 158 158 158 170 170 170 139 139 194
 194 46 236 236 5 5 5 5 142 142 191 191 144 144 144 144 144 144 144 158
 158 158 158 158 139 139 139 139 139 46 46 46 5 5 5 5 5 142 191 191
 191 191 144 144 144 144 144 137 137 158 67 67 67 67 139 139 139 46 46 46
 46 5 5 5 5 5 191 191 191 191 191 191 144 201 137 137 137 137 137 67
 67 67 67 139 139 46 46 46 46 46 46 5 5 5 230 191 191 191 191 191
 191 237 237 137 137 137 137 137 67 67 67 67 67 139 46 46 46 46 46 46
 230 230 230 230 230 191 191 191 191 191 237 237 237 137 137 137 137 67 67 67
 67 67 46 46 46 46 46 101 230 230 230 230 230 230 230 230 191 191 163 237
 237 237 137 137 137 137 109 67 67 67 67 46 46 46 101 101 101 101 230 230
 230 230 230 14 14 14 163 163 163 163 163 163 137 137 137 109 67 67 67 67
 101 101 101 101 101 101 101 230 230 230 230 230 14 14 155 163 163 163 163 163
 163 163 137 137 109 67 67 67 101 101 101 101 101 101 101 101 230 230 230 230
 230 155 155 155 163 163 163 163 163 163 163 163 235 53 53 53 183 183 101 101
 101 101 101 192 192 192 230 230 230 155 155 155 155 155 198 198 163 163 163 163
 249 53 53 53 53 183 183 183 101 101 101 101 192 192 192 230 62 111 155 155
 155 155 155 198 198 198 163 163 249 53 53 53 53 53 179 179 179 13 13 13
 13 4 192 192 62 62 62 62 155 155 155 166 166 166 19 249 249 53 53 53
 53 53 53 179 179 179 13 13 13 13 4 192 192 192 62 62 62 155 155 166
 166 166 166 19 19 249 53 53 53 53 53 53 179 179 179 179 13 13 13 4
 192 192 192 62 62 62 155 166 166 166 166 166 19 19 19 53 53 53 53 53
 53 179 179 179 179 13 13 13 4 192 192 81 81 81 123 123 123 166 166 166
 166 125 125 125 53 53 53 53 53 53 179 179 179 179 107 13 20 30 30 30
 30 30 123 123 123 123 123 166 166 125 125 125 125 53 53 53 53 53 53 179
 179 70 70 70 70 70 30 30 30 30 30 123 123 123 123 123 166 125 125 125
 125 125 219 53 53 53 53 53 179 70 70 70 70 70 70 27 30 30 30 30
 123 123 123 123 123 123 174 172 172 172 219 219 219 53 200 200 200 200 70 70
 70 70 70 70 27 30 30 30 30 123 123 123 123 123 148 174 172 172 172 172
 219 219 200 200 200 200 200 70 70 70 70 70 70 181 30 30 30 30 123 123
 123 123 123 148 172 174 174 172 172 219 118 200 200 200 200 200 200 48 48 48
 48 181 181 181 30 30 30 123 123 123 248 248 148 172 174 174 174 174 118 118
 118 200 200 200 200 200 48 48 48 181 181 181 181 30 30 248 248 248 248 248
 248 248 172 174 174 174 174 118 118 118 200 200 200 200 200 48 48 181 181 181
 181 181 16 248 248 248 248 248 248 248 248 172 174 214 214 214 214 214 118 118
 200 200 200 200 48 181 181 181 181 236 236 236 133 133 248 248 248 248 113 113
 113 199 199 214 214 214 214 188 188 188 188 188 188 170 170 181 181 181 236 236
 236 236 133 133 248 248 113 113 113 113 1 1 214 214 214 214 188 188 188 188
 188 188 170 170 170 181 181 236 236 236 236 236 133 248 248 113 113 113 1 1
 1 1 214 214 214 214 188 188 188 188 170 170 170 170 181 224 236 236 236 236
 236 133 186 186 113 113 113 1 1 1 1 1 214 214 214 188 188 188 170 170
 170 170 170 170 195 236 236 236 236 236 142 142 142 113 113 113 1 1 1 1
 1 214 214 158 188 170 170 170 170 170 139 139 195 195 236 236 236 236 142 142
 142 142 142 144 144 144 144 144 144 1 1 1 158 158 67 170 170 139 139 139
 139 139 46 236 236 236 236 142 142 142 142 142 191 144 144 144 144 144 144 144