# vtk DataFile Version 2.0
Data set from ImportExport Version 6.5.171.b0b162591
ASCII

DATASET RECTILINEAR_GRID
DIMENSIONS 30 30 30
X_COORDINATES 30 float
-1.250000 1.250000 3.750000 6.250000 8.750000 11.250000 13.750000 16.250000 18.750000 21.250000 23.750000 26.250000 28.750000 31.250000 33.750000 36.250000 38.750000 41.250000 43.750000 46.250000 48.750000 
51.250000 53.750000 56.250000 58.750000 61.250000 63.750000 66.250000 68.750000 71.250000 
Y_COORDINATES 30 float
-1.250000 1.250000 3.750000 6.250000 8.750000 11.250000 13.750000 16.250000 18.750000 21.250000 23.750000 26.250000 28.750000 31.250000 33.750000 36.250000 38.750000 41.250000 43.750000 46.250000 48.750000 
51.250000 53.750000 56.250000 58.750000 61.250000 63.750000 66.250000 68.750000 71.250000 
Z_COORDINATES 30 float
-1.250000 1.250000 3.750000 6.250000 8.750000 11.250000 13.750000 16.250000 18.750000 21.250000 23.750000 26.250000 28.750000 31.250000 33.750000 36.250000 38.750000 41.250000 43.750000 46.250000 48.750000 
51.250000 53.750000 56.250000 58.750000 61.250000 63.750000 66.250000 68.750000 71.250000 
CELL_DATA 24389
SCALARS FeatureIds int 1
LOOKUP_TABLE default
 116 125 125 125 59 59 59 59 218 218 218 42 42 42 42 42 194 109 109 109
 13 13 187 187 187 116 116 116 116 116 125 125 125 59 59 59 59 218 218 218
 218 42 42 42 42 109 109 109 13 13 13 187 187 187 116 116 116 116 116 125
 125 125 59 59 59 59 218 218 218 218 42 42 42 17 109 109 109 13 13 13
 187 187 187 116 116 116 116 116 127 127 125 59 59 87 87 87 218 218 218 17
 17 17 17 17 17 109 13 27 27 27 27 187 116 216 216 216 127 127 127 127
 127 87 87 87 87 87 218 218 17 17 17 17 17 17 166 166 27 27 27 27
 27 216 216 216 216 127 127 127 127 127 87 87 87 87 87 87 17 17 17 17
 17 17 17 166 166 166 27 27 27 27 216 216 216 216 127 127 127 127 127 87
 87 87 87 87 87 36 36 17 17 17 17 17 166 166 27 27 27 27 27 121
 121 216 216 3 127 127 127 127 87 87 87 87 87 87 36 36 36 17 17 17
 129 166 166 27 27 27 27 121 121 3 3 3 3 3 127 40 40 40 87 87
 53 53 53 53 36 36 36 17 129 129 166 166 27 27 27 190 121 3 3 3
 3 3 3 40 40 40 40 40 40 53 53 53 53 36 36 36 21 21 21 144
 144 27 27 190 190 3 3 3 3 3 3 40 40 40 40 40 40 40 53 53
 53 53 36 21 21 21 21 21 21 144 144 117 190 33 33 3 3 3 3 92
 40 40 40 40 40 40 40 40 53 53 53 21 21 21 21 21 21 21 21 117
 117 117 33 33 33 92 92 92 92 92 40 40 40 40 40 40 238 238 238 238
 21 21 21 21 21 21 21 21 117 117 117 33 33 33 92 92 92 92 92 40
 40 40 40 40 40 238 238 238 238 172 172 172 21 21 21 21 117 117 117 117
 33 33 33 92 92 92 92 92 133 40 40 40 40 40 238 238 238 172 172 172
 172 172 172 21 21 117 117 117 117 33 33 33 33 92 92 133 133 133 133 133
 51 51 51 51 238 238 172 172 172 172 172 172 134 134 134 117 117 117 33 33
 33 33 92 92 133 133 133 133 133 51 51 51 51 51 51 172 172 172 172 172
 172 134 134 134 181 181 139 139 33 33 33 92 133 133 133 133 133 133 51 51
 51 51 51 51 172 172 172 172 172 172 134 134 181 181 181 139 139 139 139 139
 133 133 133 133 133 133 133 51 51 51 51 51 228 228 228 172 172 172 134 134
 181 181 181 181 139 139 139 139 139 133 133 133 133 133 133 133 51 51 51 164
 164 228 228 50 50 50 50 134 134 181 181 181 181 139 139 139 139 139 133 133
 133 133 133 133 133 51 51 164 164 164 164 50 50 50 50 50 151 151 181 181
 181 181 139 139 139 139 139 139 133 156 156 156 156 156 167 167 167 167 167 167
 50 50 50 50 50 151 151 151 181 181 181 139 139 139 139 139 139 156 23 23
 23 23 23 167 167 167 167 167 167 167 50 50 50 50 151 151 151 29 29 29
 29 139 139 139 139 23 23 23 23 23 23 23 52 167 167 167 167 167 167 167
 50 50 50 194 29 29 29 29 29 29 29 29 139 23 23 23 23 23 23 23
 23 52 167 167 167 167 167 167 42 42 42 42 194 29 29 29 29 29 29 29
 29 131 23 23 23 23 23 23 23 23 52 167 167 167 167 167 42 42 42 42
 42 194 194 194 29 29 29 29 29 29 131 131 23 23 23 23 23 23 23 52
 170 170 170 167 42 42 42 42 42 42 194 194 194 29 29 29 29 29 29 131
 131 23 23 97 97 97 23 59 170 170 170 170 170 42 42 42 42 42 42 194
 194 194 194 29 29 29 29 131 131 116 116 23 97 97 125 125 59 59 59 170
 218 218 218 42 42 42 42 42 194 194 194 194 13 29 29 187 187 116 116 116
 116 143 143 125 125 59 59 59 59 170 218 218 42 42 42 42 42 194 109 109
 109 109 187 187 187 187 116 116 116 116 116 143 125 125 59 59 59 59 218 218
 218 218 42 42 42 42 109 109 109 109 109 187 187 187 187 116 116 116 116 116
 143 125 125 59 59 59 59 87 218 218 218 42 42 17 17 109 109 109 109 13
 187 187 187 187 116 116 116 116 116 127 127 125 59 59 87 87 87 87 218 218
 17 17 17 17 17 17 109 13 27 187 187 187 187 116 116 116 116 127 127 127
 127 127 87 87 87 87 87 87 17 17 17 17 17 17 17 166 166 166 27 27
 27 187 216 216 216 216 189 127 127 127 127 87 87 87 87 87 87 17 17 17
 17 17 17 17 166 166 166 27 27 27 121 121 121 216 216 189 189 127 127 127
 87 87 87 87 87 87 36 36 17 17 17 17 17 166 166 166 27 27 121 121
 121 121 121 3 189 189 189 127 127 87 87 87 87 87 36 36 36 36 17 17
 17 17 166 166 27 27 27 121 121 121 121 3 3 189 189 189 40 40 40 87
 87 87 87 36 36 36 36 36 17 17 17 144 144 27 27 190 190 121 121 3
 3 3 3 189 40 40 40 40 40 40 40 53 53 36 36 36 36 21 21 21
 144 144 144 190 190 190 202 3 3 3 3 3 3 40 40 40 40 40 40 40
 53 53 36 36 21 21 21 21 21 21 144 144 144 190 202 202 202 3 3 3
 3 40 40 40 40 40 40 40 40 53 53 36 21 21 21 21 21 21 21 144
 144 117 202 202 202 202 202 92 92 92 92 40 40 40 40 40 40 40 238 238
 238 21 21 21 21 21 21 21 57 57 117 33 33 33 33 92 92 92 92 92
 40 40 40 40 40 40 40 238 238 172 172 172 172 21 21 21 21 57 57 117
 117 33 33 33 92 92 92 92 92 133 40 40 40 40 40 238 238 238 172 172
 172 172 172 21 21 134 57 57 117 33 33 33 33 92 92 92 133 133 133 133
 40 40 51 51 51 238 172 172 172 172 172 172 134 134 134 134 57 117 33 33
 33 33 33 92 92 133 133 133 133 133 51 51 51 51 51 172 172 172 172 172
 172 134 134 134 134 181 181 139 139 139 33 33 92 133 133 133 133 133 133 51
 51 51 51 51 172 172 172 172 172 172 134 134 134 134 181 181 139 139 139 139
 139 133 133 133 133 133 133 133 51 51 51 51 51 172 172 172 172 172 172 134
 134 134 181 181 181 139 139 139 139 139 133 133 14 14 133 133 133 51 51 51
 164 164 228 228 204 204 204 204 134 134 134 181 181 181 139 139 139 139 139 139
 14 156 156 156 133 133 51 51 164 164 164 164 204 204 204 204 204 151 151 151
 181 181 181 139 139 139 139 139 139 14 156 156 156 156 156 167 167 167 167 167
 167 167 204 204 204 204 151 151 151 181 181 181 139 139 139 139 139 156 156 156
 156 156 156 156 52 167 167 167 167 167 167 204 204 204 204 151 151 151 29 29
 29 139 139 139 139 139 23 23 23 23 23 23 52 52 167 167 167 167 167 167
 167 204 204 204 151 151 29 29 29 29 29 139 139 139 23 23 23 23 23 23
 23 52 52 52 167 167 167 167 167 42 42 42 42 81 81 29 29 29 29 29
 29 131 131 131 23 23 23 23 23 23 52 52 52 167 167 167 167 42 42 42
 42 42 81 81 81 29 29 29 29 29 131 131 131 23 23 23 23 23 23 52
 52 170 170 170 170 42 42 42 42 42 42 194 81 81 81 29 29 29 131 131
 131 131 131 23 23 23 23 23 52 170 170 170 170 170 42 42 42 42 42 42
 194 194 194 194 29 29 29 131 131 131 131 131 23 143 143 125 125 59 59 170
 170 170 170 42 42 42 42 42 42 194 194 194 194 13 187 187 187 187 131 116
 116 116 143 143 143 125 59 59 59 170 170 170 218 42 42 42 42 42 194 109
 109 109 109 187 187 187 187 187 116 116 116 143 143 143 125 59 59 59 59 218
 218 218 42 42 42 42 42 109 109 109 109 109 187 187 187 187 187 116 116 116
 143 143 143 125 59 59 59 59 87 218 218 42 42 42 17 17 109 109 109 109
 109 187 187 187 187 187 116 116 116 143 143 143 125 59 59 87 87 87 87 87
 7 17 17 17 17 17 17 109 109 187 187 187 187 187 187 116 116 116 127 127
 127 127 127 87 87 87 87 87 87 7 17 17 17 17 17 17 166 166 166 187
 187 187 187 121 116 116 116 189 189 127 127 127 87 87 87 87 87 87 36 17
 17 17 17 17 17 166 166 166 27 41 121 121 121 121 121 189 189 189 189 127
 127 87 87 87 87 87 36 36 36 36 17 17 17 17 166 166 166 166 121 121
 121 121 121 121 189 189 189 189 189 127 87 87 87 87 87 36 36 36 36 36
 17 17 17 166 166 166 166 121 121 121 121 121 121 189 189 189 189 189 40 40
 87 87 87 36 36 36 36 36 36 36 17 17 144 144 144 190 190 190 121 121
 121 3 3 189 189 189 40 40 40 40 40 40 36 36 36 36 36 36 212 212
 144 144 144 144 190 190 190 190 202 3 3 3 3 189 40 40 40 40 40 40
 40 40 104 36 36 36 21 21 21 21 144 144 144 144 190 190 202 202 202 3
 3 92 40 40 40 40 40 40 40 40 40 104 104 36 21 21 21 21 21 144
 144 144 57 57 202 202 202 202 202 92 92 92 40 40 40 40 40 40 40 40
 104 104 212 212 212 21 21 21 144 57 57 57 57 202 202 202 202 92 92 92
 92 40 40 40 40 40 40 40 40 172 172 172 172 172 21 21 21 57 57 57
 57 57 33 33 33 92 92 92 92 92 133 62 40 40 40 40 40 238 172 172
 172 172 172 172 172 134 134 57 57 57 57 33 33 33 92 92 92 133 133 133
 62 62 40 40 100 100 100 172 172 172 172 172 172 134 134 134 134 57 57 57
 33 33 33 92 92 92 133 133 133 133 133 100 100 100 100 100 172 172 172 172
 172 172 134 134 134 134 134 181 139 139 33 33 92 92 133 14 14 14 14 14
 100 100 100 100 100 172 172 172 172 172 172 134 134 134 134 181 181 139 139 139
 139 139 133 133 14 14 14 14 14 100 100 100 100 100 172 172 172 172 172 134
 134 134 134 134 181 181 139 139 139 139 139 14 14 14 14 14 14 14 14 100
 100 100 100 204 204 204 204 204 204 134 134 134 181 181 181 139 139 139 139 139
 14 14 156 156 156 156 156 156 167 167 167 167 204 204 204 204 204 204 151 151
 151 181 181 181 139 139 139 139 139 156 156 156 156 156 156 156 156 167 167 167
 167 167 204 204 204 204 204 151 151 151 151 181 139 139 139 139 139 139 156 156
 156 156 156 156 156 52 167 167 167 167 167 167 204 204 204 204 151 151 151 151
 29 139 139 139 139 139 156 156 156 23 23 23 23 52 52 52 167 167 167 167
 167 204 204 204 204 151 151 151 29 29 29 29 226 226 226 226 23 23 23 23
 23 23 52 52 52 167 167 167 167 167 42 42 42 42 81 81 81 29 29 29
 29 29 131 131 131 23 23 23 23 23 23 52 52 52 170 170 167 167 42 42
 42 42 42 81 81 81 81 29 29 29 29 131 131 131 131 23 23 23 23 23
 52 52 170 170 170 170 42 42 42 42 42 42 194 81 81 81 29 29 29 131
 131 131 131 131 23 23 23 23 23 52 170 170 170 170 170 42 42 42 42 42
 42 194 194 194 194 29 29 131 131 131 131 131 131 23 143 143 125 125 59 170
 170 170 170 170 42 42 42 42 42 42 194 194 194 194 194 187 187 187 131 131
 116 116 116 143 143 143 125 59 59 170 170 170 170 170 42 42 42 42 42 194
 109 109 109 109 187 187 187 187 187 116 116 143 143 143 143 143 59 59 59 170
 170 170 170 42 42 42 42 42 109 109 109 109 187 187 187 187 187 187 116 116
 143 143 143 143 143 59 59 59 59 87 218 7 7 42 42 17 17 150 109 109
 109 187 187 187 187 187 187 116 116 116 143 143 143 143 59 59 87 87 87 87
 7 7 7 17 17 17 17 17 109 166 41 187 187 187 187 187 116 116 116 143
 127 127 127 127 87 87 87 87 87 7 7 7 17 17 17 17 17 166 166 41
 41 41 187 187 187 121 116 116 189 189 189 127 127 87 87 87 87 87 7 7
 7 222 17 17 17 17 166 166 41 41 41 121 121 121 121 121 189 189 189 189
 189 127 87 87 87 87 87 36 36 36 36 222 17 17 17 19 166 41 41 41
 121 121 121 121 121 189 189 189 189 189 127 87 87 87 87 36 36 36 36 36
 36 17 17 17 19 144 41 41 121 121 121 121 121 121 189 189 189 189 189 189
 40 40 87 87 104 104 36 36 36 36 36 36 144 144 144 144 190 190 190 121
 121 121 121 189 189 189 189 40 40 40 40 40 40 104 104 104 36 36 36 212
 212 144 144 144 144 190 190 190 190 202 202 3 3 189 189 189 40 40 40 40
 40 146 104 104 104 36 36 212 212 212 144 144 144 144 190 190 190 202 202 202
 202 3 92 40 40 40 40 40 40 146 146 146 104 104 104 212 212 212 212 144
 144 144 144 57 57 202 202 202 202 202 202 92 92 40 40 40 40 40 146 146
 146 104 104 212 212 212 212 212 144 144 57 57 57 57 202 202 202 202 202 92
 92 62 62 62 40 40 40 40 146 146 104 172 172 172 212 212 212 57 57 57
 57 57 57 57 202 202 202 92 92 92 62 62 62 62 62 40 40 146 146 172
 172 172 172 172 172 172 134 57 57 57 57 57 57 33 33 92 92 92 133 62
 62 62 62 62 62 100 100 100 172 172 172 172 172 172 134 134 134 57 57 57
 57 57 33 33 92 92 92 14 14 14 62 62 62 100 100 100 100 172 172 172
 172 172 172 134 134 134 134 57 57 57 57 139 33 92 92 133 14 14 14 14
 62 62 100 100 100 100 172 172 172 172 172 236 134 134 134 134 134 181 139 139
 139 139 139 14 14 14 14 14 14 62 100 100 100 100 100 45 45 172 172 236
 236 134 134 134 134 181 181 139 139 139 139 139 14 14 14 14 14 14 14 100
 100 100 100 100 45 204 204 204 204 204 134 134 134 134 181 181 139 139 139 139
 139 14 14 156 156 156 156 156 156 100 167 167 167 204 204 204 204 204 204 151
 151 151 151 181 139 139 139 139 139 139 156 156 156 156 156 156 156 156 167 167
 167 167 167 204 204 204 204 204 151 151 151 151 151 139 139 139 139 139 139 156
 156 156 156 156 156 156 52 167 167 167 167 167 204 204 204 204 204 151 151 151
 151 105 226 226 226 226 226 226 156 156 156 156 67 67 52 52 52 167 167 167
 167 167 204 204 204 204 151 151 151 105 29 226 226 226 226 226 226 156 156 23
 23 67 67 52 52 52 52 167 167 167 167 42 42 235 235 235 81 81 29 29
 226 226 226 226 226 131 23 23 23 23 67 67 52 52 52 170 170 170 167 42
 42 42 235 235 235 81 81 81 29 29 226 226 131 131 131 131 23 23 23 67
 67 52 52 170 170 170 170 170 42 42 42 42 235 194 81 81 81 29 29 131
 131 131 131 131 131 23 23 23 67 67 52 170 170 170 170 170 170 42 42 42
 42 42 194 194 194 194 194 131 131 131 131 131 131 131 131 143 143 143 67 170
 170 170 170 170 170 170 42 42 42 42 42 194 194 194 194 194 187 187 187 131
 131 131 131 143 143 143 143 143 59 170 170 170 170 170 170 42 42 42 42 42
 194 109 109 109 187 187 187 187 187 187 116 116 143 143 143 143 143 59 59 59
 170 170 170 170 42 42 42 150 150 150 150 109 109 187 187 187 187 187 187 116
 116 143 143 143 143 143 59 59 59 219 219 7 7 7 7 7 150 150 150 150
 150 82 187 187 187 187 187 187 116 116 143 143 143 143 143 143 219 87 87 87
 7 7 7 7 7 150 150 150 150 82 82 41 41 187 187 187 187 187 116 143
 143 143 143 127 127 87 87 87 87 7 7 7 7 7 17 17 150 19 82 82
 41 41 41 187 187 187 121 116 143 189 189 189 189 127 87 87 87 87 7 7
 7 7 222 222 222 19 19 82 82 41 41 41 41 121 121 121 121 189 189 189
 189 189 127 87 87 87 87 7 7 7 222 222 222 222 19 19 19 82 41 41
 41 121 121 121 121 121 189 189 189 189 189 189 87 87 87 87 104 104 36 222
 222 222 222 19 19 19 19 41 41 41 121 121 121 121 121 189 189 189 189 189
 189 146 146 146 104 104 104 104 36 222 222 222 222 144 144 144 144 41 190 190
 121 121 121 121 189 189 189 189 189 40 146 146 146 146 104 104 104 104 36 222
 212 212 144 144 144 144 190 190 190 190 202 202 202 3 189 189 189 40 40 146
 146 146 146 104 104 104 104 104 212 212 212 144 144 144 144 57 190 190 202 202
 202 202 202 232 232 232 40 40 146 146 146 146 146 104 104 104 104 212 212 212
 144 144 144 57 57 57 202 202 202 202 202 202 232 232 62 40 40 146 146 146
 146 146 104 104 104 212 212 212 212 144 144 57 57 57 57 57 202 202 202 202
 92 62 62 62 62 62 146 146 146 146 146 104 104 172 172 212 212 212 57 57
 57 57 57 57 57 202 202 202 202 92 62 62 62 62 62 62 146 146 146 146
 172 172 172 172 172 172 134 57 57 57 57 57 57 57 57 202 202 92 92 62
 62 62 62 62 62 62 100 102 102 172 172 172 172 172 236 134 134 134 57 57
 57 57 57 57 202 202 92 92 14 62 62 62 62 62 100 100 100 100 172 172
 172 172 236 236 134 134 134 134 57 57 57 57 57 208 208 92 14 14 14 14
 62 62 62 100 100 100 100 45 45 172 236 236 236 134 134 134 134 57 56 56
 56 208 208 208 14 14 14 14 14 14 62 62 100 100 100 100 45 45 45 236
 236 236 134 134 134 134 181 56 56 56 208 208 208 14 14 177 177 177 14 14
 62 100 100 100 45 45 45 204 204 204 236 134 134 134 134 181 56 56 208 208
 208 208 208 14 156 156 156 156 156 156 100 100 167 45 45 204 204 204 204 204
 151 151 151 151 181 139 56 208 208 208 208 156 156 156 156 156 156 156 156 167
 167 167 167 167 204 204 204 204 204 151 151 151 151 105 226 226 226 226 226 226
 156 156 156 156 156 67 67 67 167 167 167 167 167 204 204 204 204 204 151 151
 151 105 105 226 226 226 226 226 226 156 156 156 67 67 67 67 52 52 167 167
 167 167 204 204 204 204 235 235 151 105 105 105 226 226 226 226 226 226 226 156
 67 67 67 67 67 52 52 170 170 167 68 68 68 235 235 235 235 235 105 105
 105 226 226 226 226 226 226 226 23 67 67 67 67 67 52 52 170 170 170 68
 68 68 235 235 235 235 235 105 105 105 226 226 226 226 131 131 131 23 67 67
 67 67 67 52 170 170 170 170 68 68 68 235 235 235 235 235 81 81 88 131
 131 131 131 131 131 131 131 23 67 67 67 67 170 170 170 170 170 170 42 42
 42 235 235 235 235 194 194 194 131 131 131 131 131 131 131 131 143 143 67 67
 67 170 170 170 170 170 170 42 42 42 42 42 194 194 194 194 194 187 187 187
 131 131 131 131 143 143 143 143 15 15 15 15 170 170 170 170 42 42 42 150
 150 150 150 150 150 187 187 187 187 187 106 106 106 143 143 143 143 143 15 15
 15 15 15 15 7 7 7 150 150 150 150 150 150 150 187 187 187 187 187 106
 106 106 143 143 143 143 143 219 219 219 219 219 219 7 7 7 7 150 150 150
 150 150 150 187 187 187 187 187 187 106 106 143 143 143 143 143 219 219 219 219
 219 7 7 7 7 7 150 150 150 150 150 82 41 41 187 187 187 187 187 116
 143 143 143 143 143 219 219 219 219 7 7 7 7 7 7 7 150 150 19 82
 82 41 41 41 41 187 121 121 75 143 189 189 189 189 127 219 219 87 7 7
 7 7 7 222 222 222 19 19 82 82 41 41 41 41 121 121 121 75 189 189
 189 189 189 127 87 87 87 7 7 7 7 222 222 222 222 19 19 19 82 41
 41 41 41 121 121 75 75 189 189 189 189 189 189 146 146 87 104 104 104 104
 222 222 222 222 19 19 19 19 19 41 41 121 121 121 75 75 189 189 189 189
 189 189 146 146 146 104 104 104 104 104 222 222 222 19 19 19 19 19 41 190
 121 121 75 75 75 189 189 189 189 189 146 146 146 146 146 104 104 104 104 222
 222 222 212 144 144 144 144 144 190 190 202 202 202 202 3 232 232 232 232 146
 146 146 146 146 104 104 104 104 104 212 212 212 144 144 144 144 57 57 202 202
 202 202 202 232 232 232 232 61 61 146 146 146 146 146 104 104 104 104 212 212
 212 144 144 144 57 57 57 57 202 202 202 202 202 232 232 61 61 61 146 146
 146 146 146 104 104 104 37 212 212 212 144 144 57 57 57 57 57 202 202 202
 202 232 232 62 62 62 62 61 146 146 146 146 104 104 104 172 212 212 212 57
 57 57 57 57 57 57 57 202 202 202 232 62 62 62 62 62 62 102 102 102
 102 102 172 172 172 172 236 236 57 57 57 57 57 57 57 57 202 202 202 92
 62 62 62 62 62 62 102 102 102 102 102 172 172 236 236 236 236 123 57 57
 57 57 57 57 57 202 202 92 92 62 62 62 62 62 62 102 102 102 102 45
 45 172 236 236 236 236 123 215 215 215 57 57 57 208 208 208 70 14 14 62
 62 62 62 62 100 102 100 45 45 45 45 236 236 236 236 123 215 215 215 56
 56 56 208 208 208 14 14 177 177 177 14 62 62 100 100 100 45 45 45 45
 45 236 236 123 123 123 215 215 56 56 56 208 208 208 208 14 177 177 177 177
 62 62 100 100 45 45 45 45 45 45 123 123 123 123 123 215 215 56 56 208
 208 208 208 208 177 177 177 177 156 156 156 100 45 45 45 45 45 45 204 204
 123 123 123 123 105 105 56 56 208 208 208 208 208 156 156 177 156 156 67 67
 67 45 45 45 45 45 204 204 204 204 151 151 105 105 105 226 226 226 226 208
 208 208 156 156 156 67 67 67 67 67 167 167 68 68 204 204 204 204 204 151
 105 105 105 105 226 226 226 226 226 226 226 156 67 67 67 67 67 67 67 167
 167 68 68 68 68 68 235 235 235 105 105 105 105 226 226 226 226 226 226 226
 156 67 67 67 67 67 67 67 170 170 68 68 68 68 68 235 235 235 105 105
 105 105 105 226 226 226 226 226 226 23 67 67 67 67 67 67 52 170 170 68
 68 68 68 68 235 235 235 235 88 88 88 105 226 226 226 226 131 131 23 67
 67 67 67 67 67 170 170 170 68 68 68 68 68 235 235 235 235 88 88 88
 88 226 131 131 131 131 131 131 67 67 67 67 67 67 170 170 170 170 68 68
 68 68 235 235 235 235 88 88 88 88 131 131 131 131 131 131 131 143 67 67
 67 67 170 170 170 170 170 68 68 68 42 235 235 235 235 88 88 88 106 106
 106 106 106 106 106 106 143 143 219 219 15 15 15 15 15 15 8 8 8 150
 150 150 150 150 150 150 106 106 106 106 106 106 106 106 106 143 143 143 15 15
 15 15 15 15 15 8 8 8 150 150 150 150 150 150 150 106 106 106 106 106
 106 106 106 143 143 143 143 219 15 15 219 219 219 8 8 8 8 150 150 150
 150 150 150 150 106 106 106 106 106 106 106 106 143 111 143 143 219 219 219 219
 219 219 8 7 7 7 150 150 150 150 150 150 82 41 41 41 106 106 106 106
 106 111 160 160 160 219 219 219 219 219 7 7 7 7 7 7 150 150 150 150
 19 82 41 41 41 41 106 106 75 75 160 160 160 160 160 219 219 219 219 7
 7 7 7 7 222 222 222 19 19 19 19 41 41 41 41 75 75 75 75 160
 160 160 160 160 160 73 73 73 7 7 7 7 222 222 222 222 19 19 19 19
 41 41 41 75 75 75 75 75 160 160 160 160 160 160 11 11 11 73 104 104
 104 222 222 222 222 19 19 19 19 19 41 41 75 75 75 75 75 160 160 160
 160 160 160 11 11 11 11 104 104 104 104 222 222 222 19 19 19 19 19 41
 41 75 75 75 75 75 160 160 160 160 160 11 11 11 11 11 104 104 104 104
 222 222 222 144 144 144 144 144 144 57 75 75 75 75 75 160 232 232 232 232
 61 11 11 11 11 11 104 104 104 37 37 37 212 144 144 144 144 57 57 57
 202 202 202 232 232 232 232 232 61 61 11 11 11 11 11 104 104 104 37 37
 37 37 144 144 144 57 57 57 57 202 202 202 202 232 232 232 232 61 61 61
 11 11 11 11 104 37 37 37 37 37 212 144 57 57 57 57 57 57 57 202
 202 232 232 232 232 61 61 61 61 11 11 11 11 11 37 37 37 37 65 212
 57 57 57 57 57 57 57 57 202 202 202 232 232 62 62 62 62 62 102 102
 102 102 102 65 65 65 123 123 123 123 57 57 57 57 57 57 57 57 202 202
 232 62 62 62 62 62 62 102 102 102 102 102 45 45 123 123 123 123 123 215
 215 57 57 57 57 57 57 70 70 70 62 62 62 62 62 62 102 102 102 102
 45 45 45 123 236 236 123 123 215 215 215 215 56 56 208 208 70 70 70 177
 62 62 62 62 62 102 102 102 45 45 45 45 123 123 236 123 123 215 215 215
 56 56 56 208 208 208 70 70 177 177 177 62 62 62 102 102 45 45 45 45
 45 45 123 123 123 123 215 215 215 56 56 56 208 208 208 208 70 177 177 177
 177 62 62 102 45 45 45 45 45 45 45 123 123 123 123 123 215 215 56 56
 56 208 208 208 208 177 177 177 177 177 177 177 45 45 45 45 45 45 45 45
 123 123 123 123 123 105 105 105 56 208 208 208 208 208 156 177 177 177 177 67
 67 67 45 45 45 45 45 45 45 204 123 123 105 105 105 105 105 226 226 226
 208 208 208 156 156 67 67 67 67 67 67 68 68 68 68 68 68 68 115 115
 105 105 105 105 105 105 226 226 226 226 226 226 149 67 67 67 67 67 67 67
 68 68 68 68 68 68 68 115 115 115 105 105 105 105 105 226 226 226 226 226
 226 149 67 67 67 67 67 67 67 68 68 68 68 68 68 68 235 235 235 105
 105 105 105 105 226 226 226 226 226 226 226 67 67 67 67 67 67 67 170 68
 68 68 68 68 68 235 235 235 88 88 88 88 88 226 226 226 226 226 226 23
 67 67 67 67 67 67 170 170 68 68 68 68 68 68 235 235 235 88 88 88
 88 88 106 106 106 106 131 131 131 67 67 67 67 67 67 170 170 170 68 68
 68 68 68 235 235 235 88 88 88 88 106 106 106 106 106 106 106 106 67 67
 67 67 219 219 219 170 170 68 68 68 68 68 235 235 235 88 88 88 88 106
 106 106 106 106 106 106 106 111 219 219 219 219 15 219 219 219 219 8 8 8
 8 150 150 150 150 150 150 106 106 106 106 106 106 106 106 106 111 111 219 219
 15 15 15 219 219 219 8 8 8 8 150 150 150 150 150 150 106 106 106 106
 106 106 106 106 106 111 111 111 219 15 15 219 219 219 8 8 8 8 8 150
 150 150 150 150 150 106 106 106 106 106 106 106 106 106 111 111 111 219 219 219
 219 219 219 8 8 8 8 8 150 150 150 150 150 150 161 106 106 106 106 106
 106 106 111 111 111 111 219 219 219 219 219 219 8 8 8 8 26 26 26 150
 150 19 19 41 41 41 106 106 106 106 75 111 160 160 160 148 148 219 73 73
 73 7 7 7 7 26 26 26 26 19 19 19 19 41 41 41 75 75 75 75
 75 160 160 160 160 160 73 73 73 73 7 7 7 222 222 26 26 26 19 19
 19 19 41 41 75 75 75 75 75 160 160 160 160 160 160 73 73 73 73 73
 104 104 222 222 222 26 26 19 19 19 19 41 41 75 75 75 75 75 160 160
 160 160 160 160 73 73 73 73 104 104 104 104 222 222 222 19 19 19 19 19
 19 75 75 75 75 75 75 160 160 232 232 232 11 11 11 11 11 11 104 104
 104 37 37 37 37 19 19 19 19 98 75 75 75 75 75 163 163 232 232 232
 232 61 11 11 11 11 11 104 104 37 37 37 37 37 144 144 144 98 98 98
 98 157 157 157 157 232 232 232 232 61 61 11 11 11 11 11 104 37 37 37
 37 37 37 144 144 98 98 98 98 98 157 157 157 157 232 232 232 61 61 61
 61 11 11 11 11 37 37 37 37 37 37 37 98 98 98 98 98 98 98 157
 157 157 157 232 223 223 61 61 61 61 11 11 11 11 11 37 65 65 65 65
 65 98 98 98 98 98 98 98 98 157 157 157 232 223 223 61 61 61 61 102
 102 102 102 102 65 65 65 65 65 123 123 98 98 98 98 98 98 98 157 157
 157 223 223 62 62 62 62 102 102 102 102 102 102 45 65 123 123 123 123 123
 215 215 98 98 98 98 98 70 70 70 70 62 62 62 62 62 102 102 102 102
 102 45 45 45 123 123 123 123 123 215 215 215 215 98 98 208 70 70 70 70
 70 188 62 62 62 102 102 102 102 45 45 45 45 123 123 123 123 123 215 215
 215 215 56 56 208 208 70 70 70 188 188 177 62 62 102 102 102 45 45 45
 45 45 45 123 123 123 123 215 215 215 56 56 56 208 208 208 70 70 188 177
 177 177 177 102 102 45 45 45 45 45 45 45 123 123 123 123 123 215 215 56
 56 56 208 208 208 208 188 149 177 177 177 177 177 45 45 45 45 45 45 45
 45 123 123 123 123 123 105 105 105 56 56 208 208 208 208 149 149 149 149 149
 67 67 45 45 45 45 45 45 45 45 123 123 123 105 105 105 105 105 105 226
 226 208 208 208 149 149 149 149 67 67 67 67 68 68 68 68 68 68 68 115
 115 115 105 105 105 105 105 226 226 226 226 226 149 149 149 67 67 67 67 67
 67 68 68 68 68 68 68 68 115 115 115 105 105 105 105 105 226 226 84 84
 84 84 149 67 67 67 67 67 67 67 68 68 68 68 68 68 68 115 115 115
 105 105 105 105 105 84 84 226 226 226 226 149 67 67 67 67 67 67 67 68
 68 68 68 68 68 68 115 115 115 115 88 88 88 88 226 226 226 106 106 106
 106 67 67 67 67 67 67 170 170 68 68 68 68 68 68 115 115 115 88 88
 88 88 88 106 106 106 106 106 106 106 67 67 67 67 219 219 219 219 68 68
 68 68 68 68 68 115 115 88 88 88 88 106 106 106 106 106 106 106 106 67
 67 67 219 219 219 219 219 68 68 68 68 68 68 68 115 115 88 88 88 88
 106 106 106 106 106 106 106 106 111 219 219 219 219 219 219 219 219 219 8 8
 8 8 99 99 150 150 69 106 106 106 106 106 106 106 106 106 106 111 111 219
 219 219 219 219 219 219 8 8 8 8 8 150 150 150 150 150 69 106 106 106
 106 106 106 106 106 106 111 111 111 219 219 219 219 219 219 8 8 8 8 8
 8 150 150 150 150 150 161 106 106 106 106 106 106 106 111 111 111 111 219 219
 219 219 219 219 8 8 8 8 8 26 26 150 150 150 161 161 161 161 106 106
 106 106 106 111 111 111 111 148 148 219 219 219 219 8 8 8 8 26 26 26
 26 26 19 19 161 161 161 161 106 163 163 163 111 25 25 148 148 148 73 73
 73 73 8 8 8 8 26 26 26 26 26 19 19 161 161 161 161 75 75 163
 163 163 25 25 160 148 148 73 73 73 73 73 7 7 222 26 26 26 26 19
 19 19 19 161 161 75 75 75 163 163 163 160 160 160 160 148 73 73 73 73
 73 73 104 222 26 26 26 26 19 19 19 19 161 161 75 75 75 163 163 163
 160 25 25 25 25 73 73 73 73 73 104 104 37 37 37 37 26 19 19 19
 19 19 75 75 75 75 163 163 163 160 25 25 25 11 11 11 11 11 11 37
 37 37 37 37 37 37 37 19 19 98 98 75 157 157 157 163 163 163 232 232
 232 61 61 11 11 11 11 11 37 37 37 37 37 37 37 37 144 98 98 98
 98 157 157 157 157 157 232 232 232 232 61 61 61 11 11 11 11 37 37 37
 37 37 37 37 37 144 98 98 98 98 157 157 157 157 157 232 223 223 61 61
 61 61 11 11 11 11 37 37 37 37 37 37 37 37 98 98 98 98 98 98
 157 157 157 157 223 223 223 61 61 61 61 11 11 11 11 37 37 65 65 65
 65 37 98 98 98 98 98 98 98 157 157 157 157 223 223 223 223 61 61 61
 102 102 102 102 65 65 65 65 65 65 123 123 98 98 98 98 98 98 98 157
 157 157 223 223 223 223 61 61 102 102 102 102 102 102 65 65 65 65 123 123
 123 215 215 98 98 98 98 98 70 70 70 70 70 62 62 62 62 102 102 102
 102 102 45 45 45 123 123 123 123 123 215 215 215 215 98 98 70 70 70 70
 70 70 188 188 188 62 102 102 102 102 45 45 45 45 123 123 123 123 123 215
 215 215 215 56 56 208 70 70 70 70 188 188 188 188 188 102 102 102 102 45
 45 45 45 45 123 123 123 123 215 215 215 215 56 56 208 70 70 70 70 188
 188 188 188 188 158 158 158 45 45 45 45 45 45 123 123 123 123 123 215 215
 215 56 56 208 70 70 70 188 149 149 149 149 149 149 158 158 45 45 45 45
 45 45 123 123 123 123 123 105 105 105 56 56 208 208 208 70 149 149 149 149
 149 149 149 158 158 45 45 45 45 45 45 123 123 123 105 105 105 105 105 84
 84 84 84 208 149 149 149 149 149 149 149 149 158 68 68 68 68 68 68 68
 115 115 115 105 105 105 105 105 84 84 84 84 84 149 149 149 149 149 149 67
 67 67 68 68 68 68 68 68 68 115 115 115 105 105 105 105 105 84 84 84
 84 84 149 149 149 67 67 67 67 67 67 68 68 68 68 68 68 68 115 115
 115 115 105 105 105 105 84 84 84 84 84 84 149 67 67 67 67 67 67 67
 68 68 68 68 68 68 68 115 115 115 115 88 88 88 88 84 84 84 84 106
 106 106 67 67 67 67 67 67 219 68 68 68 68 68 68 68 115 115 115 115
 88 88 88 88 106 106 106 106 106 106 106 67 67 219 219 219 219 219 219 68
 68 68 68 68 68 115 115 115 115 88 88 88 106 106 106 106 106 106 106 106
 219 219 219 219 219 219 219 219 219 68 68 68 68 68 115 115 115 99 88 88
 88 106 106 106 106 106 106 106 106 111 219 219 219 219 219 219 219 219 219 8
 8 8 8 99 99 99 99 69 69 106 106 106 106 106 106 106 106 106 111 111
 111 219 219 219 219 219 219 8 8 8 8 8 99 99 99 99 69 69 69 106
 106 106 106 106 106 106 106 111 111 111 219 219 219 219 219 219 8 8 8 8
 8 8 69 69 69 69 69 161 161 106 106 106 106 106 106 111 111 111 111 111
 219 219 219 219 219 8 8 8 8 8 26 26 26 69 69 161 161 161 161 161
 106 106 106 106 111 111 111 111 148 148 219 219 219 219 8 8 8 8 26 26
 26 26 26 161 161 161 161 161 161 163 163 163 163 111 25 25 148 148 148 148
 73 73 73 8 8 8 8 26 26 26 26 26 161 161 161 161 161 161 163 163
 163 163 163 25 25 25 148 148 73 73 73 73 73 8 8 8 26 26 26 26
 26 161 161 161 161 161 161 163 163 163 163 163 25 25 25 25 148 73 73 73
 73 73 73 104 222 26 26 26 26 26 19 161 161 161 161 75 163 163 163 163
 163 25 25 25 25 148 73 73 73 73 73 73 37 37 37 37 26 26 26 19
 19 161 161 161 75 163 163 163 163 163 25 25 25 25 61 11 11 73 73 73
 37 37 37 37 37 37 37 37 19 19 71 71 71 157 157 157 163 163 163 232
 232 232 61 61 11 11 11 11 11 37 37 37 37 37 37 37 37 162 162 71
 71 71 157 157 157 157 157 163 223 223 223 61 61 61 11 11 11 11 37 37
 37 37 37 37 37 37 162 162 71 71 71 157 157 157 157 157 232 223 223 223
 61 61 61 11 11 11 11 37 37 37 37 37 37 37 37 162 98 98 98 98
 157 157 157 157 157 223 223 223 223 61 61 61 11 11 11 11 37 65 65 65
 65 65 37 37 98 98 98 98 98 98 157 157 157 157 223 223 223 223 61 61
 61 102 102 102 102 37 65 65 65 65 65 65 123 98 98 98 98 98 98 157
 157 157 157 223 223 223 223 61 61 102 102 102 102 102 79 65 65 65 65 123
 123 123 215 215 98 98 98 98 98 70 70 70 70 70 223 223 61 61 102 102
 102 102 102 45 45 65 123 123 123 123 123 215 215 168 168 168 168 70 70 70