# vtk DataFile Version 2.0
Data set from ImportExport Version 6.5.171.b0b162591
ASCII

DATASET RECTILINEAR_GRID
DIMENSIONS 30 30 30
X_COORDINATES 30 float
-1.250000 1.250000 3.750000 6.250000 8.750000 11.250000 13.750000 16.250000 18.750000 21.250000 23.750000 26.250000 28.750000 31.250000 33.750000 36.250000 38.750000 41.250000 43.750000 46.250000 48.750000 
51.250000 53.750000 56.250000 58.750000 61.250000 63.750000 66.250000 68.750000 71.250000 
Y_COORDINATES 30 float
-1.250000 1.250000 3.750000 6.250000 8.750000 11.250000 13.750000 16.250000 18.750000 21.250000 23.750000 26.250000 28.750000 31.250000 33.750000 36.250000 38.750000 41.250000 43.750000 46.250000 48.750000 
51.250000 53.750000 56.250000 58.750000 61.250000 63.750000 66.250000 68.750000 71.250000 
Z_COORDINATES 30 float
-1.250000 1.250000 3.750000 6.250000 8.750000 11.250000 13.750000 16.250000 18.750000 21.250000 23.750000 26.250000 28.750000 31.250000 33.750000 36.250000 38.750000 41.250000 43.750000 46.250000 48.750000 
51.250000 53.750000 56.250000 58.750000 61.250000 63.750000 66.250000 68.750000 71.250000 
CELL_DATA 24389
SCALARS FeatureIds int 1
LOOKUP_TABLE default
 25 25 25 98 98 98 98 80 1 1 1 1 181 181 181 181 181 34 34 34
 37 37 37 37 37 37 25 25 25 25 25 216 98 98 98 98 98 1 1 1
 1 181 181 181 181 181 34 34 34 34 37 37 37 37 37 37 25 25 216 216
 216 216 216 98 98 98 1 1 1 1 181 181 181 181 181 34 34 34 34 37
 37 37 37 37 37 25 25 183 216 216 216 216 216 216 216 182 182 182 182 182
 181 188 188 188 34 34 34 37 37 37 37 37 37 22 183 183 183 183 216 216
 216 216 216 69 182 182 182 182 182 188 188 188 188 132 132 62 132 132 132 37
 37 22 22 183 183 183 183 183 216 216 216 69 69 69 182 182 182 182 188 188
 188 188 132 132 132 132 132 132 132 132 22 22 183 183 84 84 84 183 216 216
 69 69 69 69 182 182 182 188 188 188 188 132 132 132 132 132 132 132 132 11
 22 183 183 84 84 84 84 84 84 69 69 69 69 69 182 182 188 188 188 132
 132 132 132 132 132 132 132 132 99 84 84 84 84 84 84 84 84 84 69 69
 69 69 69 69 182 188 188 132 132 132 132 132 132 132 132 132 99 99 99 84
 84 84 84 84 73 73 73 69 69 69 69 69 69 69 196 188 132 132 132 132
 132 132 132 132 99 99 99 99 84 84 84 73 73 73 73 73 28 28 28 28
 28 28 28 196 173 173 173 173 132 132 132 132 132 99 99 99 99 84 84 73
 73 73 73 73 73 28 28 28 28 28 28 196 196 173 173 173 173 173 132 107
 107 107 107 99 99 99 74 74 73 73 73 73 73 73 29 29 159 159 159 28
 196 196 196 173 173 173 173 107 107 107 107 107 107 107 74 74 74 220 220 220
 73 73 8 29 29 29 29 29 196 196 196 196 173 173 173 173 107 107 107 107
 107 75 75 75 74 220 220 220 220 220 8 8 8 8 29 29 29 196 196 196
 139 139 139 173 173 107 107 107 107 75 75 75 75 75 220 220 220 220 220 8
 8 8 8 8 29 29 196 196 139 139 139 139 139 139 107 107 107 75 75 75
 20 20 20 220 220 220 220 220 8 8 8 8 8 8 29 55 139 139 139 139
 139 139 139 107 107 235 235 235 235 20 20 20 220 220 220 220 8 8 8 8
 8 8 8 55 55 55 55 166 166 139 139 139 235 235 235 235 235 235 20 20
 20 20 220 220 220 8 8 8 8 8 8 208 55 55 55 55 55 166 166 166
 238 238 238 235 235 235 20 20 20 20 20 44 44 44 44 44 8 208 208 208
 208 55 55 55 55 55 55 166 238 238 238 238 238 235 235 20 20 20 20 20
 44 44 44 44 217 217 87 87 87 87 55 55 55 55 55 55 55 238 238 238
 238 238 238 33 33 33 33 33 33 44 44 44 44 217 217 87 87 87 87 184
 55 55 55 55 55 238 238 238 238 238 238 238 33 33 33 33 33 33 237 237
 44 44 217 217 87 87 87 87 160 160 160 160 160 160 160 238 238 238 238 238
 238 33 33 33 33 33 33 237 237 237 237 217 217 87 87 87 125 160 160 160
 160 160 160 160 238 238 238 238 238 33 33 33 33 33 33 33 237 237 237 237
 237 131 131 131 80 125 160 160 160 160 160 160 160 238 238 238 238 190 190 190
 190 33 33 33 237 237 237 237 237 131 131 131 131 80 125 125 160 160 160 160
 160 229 229 229 229 190 190 190 190 190 190 203 237 237 25 25 25 25 131 131
 131 80 80 125 125 125 125 160 160 229 229 229 229 229 229 190 190 190 190 190
 203 25 25 25 25 25 25 131 131 131 80 80 80 125 125 125 125 13 229 229
 229 229 229 229 229 190 190 190 190 203 25 25 25 25 25 25 98 131 80 80
 80 1 125 125 125 13 13 229 229 229 229 229 37 37 37 37 37 37 25 25
 25 25 25 25 25 98 80 80 80 1 1 1 1 13 13 13 13 13 229 34
 34 34 37 37 37 37 37 25 25 25 25 25 25 25 98 98 80 80 1 1
 1 1 13 13 13 13 13 34 34 34 34 37 37 37 37 37 37 25 25 25
 216 216 216 216 98 98 80 1 1 1 1 13 13 13 13 13 34 34 34 34
 37 37 37 37 37 22 22 22 183 216 216 216 216 216 216 69 182 182 182 182
 182 188 188 188 188 34 34 34 34 37 37 37 37 22 22 22 22 183 183 216
 216 216 216 216 69 182 182 182 182 182 188 188 188 188 188 132 132 132 132 132
 37 22 22 22 22 22 84 84 84 216 216 216 69 69 69 69 182 182 182 188
 188 188 188 132 132 132 132 132 132 132 132 22 22 22 22 84 84 84 84 84
 84 69 69 69 69 69 182 182 188 188 188 188 132 132 132 132 132 132 132 132
 11 22 22 84 84 84 84 84 84 84 69 69 69 69 69 69 182 188 188 188
 132 132 132 132 132 132 132 132 99 99 11 22 84 84 84 84 84 84 84 69
 69 69 69 69 69 182 188 188 132 132 132 132 132 132 132 132 99 99 99 99
 84 84 84 84 84 84 84 84 49 28 28 28 69 69 69 69 188 132 132 132
 132 132 132 132 99 99 99 99 99 84 84 84 73 73 73 73 73 49 28 28
 28 28 28 28 196 173 173 173 173 132 132 132 132 99 99 99 99 99 99 84
 73 73 73 73 110 110 49 28 28 28 28 28 196 196 173 173 173 173 173 132
 107 107 107 99 99 99 99 74 74 220 220 73 110 110 110 49 49 28 28 28
 28 196 196 196 173 173 173 173 107 107 107 107 107 99 99 74 74 74 220 220
 220 220 110 110 49 49 28 28 28 196 196 196 196 173 173 173 173 107 107 107
 107 107 75 75 74 74 74 220 220 220 220 110 110 8 8 49 49 29 196 196
 196 196 173 173 173 173 107 107 107 107 107 75 75 20 74 220 220 220 220 220
 8 8 8 8 8 8 29 196 196 196 139 139 139 139 139 107 107 107 107 235
 20 20 20 20 220 220 220 220 220 8 8 8 8 8 8 55 55 196 139 139
 139 139 139 139 107 107 235 235 235 235 20 20 20 220 220 220 220 220 8 8
 8 8 8 8 55 55 55 55 55 55 139 139 238 235 235 235 235 235 235 20
 20 20 220 220 220 220 44 44 208 208 208 208 208 208 55 55 55 55 55 166
 238 238 238 235 235 235 235 20 20 20 20 20 44 44 44 44 44 208 208 208
 208 208 184 55 55 55 55 55 55 238 238 238 238 235 235 235 20 20 20 20
 20 44 44 44 44 44 87 87 87 87 87 184 55 55 55 55 55 55 238 238
 238 238 238 147 147 147 33 77 77 77 44 44 44 44 44 87 87 87 87 87
 184 184 55 55 55 55 55 238 238 238 238 238 147 147 147 77 77 77 77 44
 44 44 44 44 87 87 87 87 87 184 184 184 160 160 160 163 163 238 238 238
 238 147 147 33 77 77 77 77 237 237 237 44 44 87 87 87 87 125 184 160
 160 160 160 160 163 163 163 238 238 238 238 147 33 77 77 77 77 237 237 237
 237 44 87 87 80 80 125 125 67 67 160 160 160 160 192 192 192 192 192 190
 190 190 203 203 203 237 237 237 237 237 131 80 80 80 80 125 125 67 67 160
 160 160 229 229 192 192 192 192 190 190 190 203 203 203 237 25 25 25 25 131
 80 80 80 80 125 125 125 125 125 125 229 229 229 229 229 192 192 190 190 190
 203 203 203 25 25 25 25 25 131 80 80 80 80 80 125 125 125 125 13 229
 229 229 229 229 229 192 37 190 190 203 203 203 25 25 25 25 25 98 80 80
 80 80 1 125 125 125 13 13 13 229 229 229 229 34 37 37 37 37 203 203
 203 25 25 25 25 25 25 80 80 80 1 1 1 1 13 13 13 13 13 229
 34 34 34 34 37 37 37 117 117 25 25 25 25 25 25 25 80 80 80 1
 1 1 1 13 13 13 13 13 34 34 34 34 34 37 37 37 117 117 25 25
 25 25 216 216 216 80 80 80 1 1 1 1 13 13 13 13 13 34 34 34
 34 34 37 37 37 11 11 22 22 22 216 216 216 216 216 80 129 129 129 129
 182 182 13 13 188 188 34 34 34 34 34 37 37 11 11 11 22 22 22 183
 216 216 216 216 216 69 129 129 182 182 182 188 188 188 188 132 132 132 132 132
 132 132 11 11 22 22 22 22 84 84 84 216 103 69 69 69 69 182 182 182
 188 188 188 188 132 132 132 132 132 132 132 22 22 22 22 22 84 84 84 84
 84 84 69 69 69 69 69 182 182 188 188 188 188 132 132 132 132 132 132 132
 11 11 22 22 22 84 84 84 84 84 84 69 69 69 69 69 69 85 188 188
 188 132 132 132 132 132 132 132 99 99 99 11 11 84 84 84 84 84 84 84
 69 69 69 69 69 69 85 85 188 132 132 132 132 132 132 132 99 99 99 99
 99 11 84 84 84 84 84 84 49 49 159 159 159 69 69 85 85 188 132 132
 132 132 132 132 99 99 99 99 99 99 99 84 84 84 84 84 110 49 49 49
 159 159 159 28 28 196 173 173 173 173 132 132 132 99 99 99 99 99 99 99
 84 74 74 110 110 110 110 49 49 28 28 28 28 196 196 173 173 173 173 173
 132 107 107 99 99 99 99 99 74 74 74 74 110 110 110 110 49 49 49 28
 28 28 196 196 196 173 173 173 173 107 107 107 107 107 99 99 74 74 74 74
 74 220 110 110 110 49 49 49 28 28 196 196 196 196 173 173 173 173 107 107
 107 107 107 107 74 74 74 74 74 220 220 110 110 110 110 49 49 49 28 196
 196 196 196 173 173 173 173 107 107 107 107 107 75 20 74 74 74 220 220 220
 220 110 110 8 49 49 49 28 196 196 196 196 173 173 173 173 107 107 107 107
 235 20 20 20 74 74 220 220 220 220 8 8 8 8 8 8 55 55 55 196
 139 139 139 139 179 179 107 235 235 235 20 20 20 20 74 220 220 220 44 8
 208 208 208 208 208 208 55 55 55 55 55 139 163 163 163 235 235 235 235 20
 20 20 20 20 220 220 44 44 44 208 208 208 208 208 208 55 55 55 55 55
 55 163 163 163 163 235 235 235 20 20 20 20 20 44 44 44 44 44 208 208
 208 208 208 184 55 55 55 55 55 163 163 163 163 163 163 147 147 20 20 77
 77 77 77 44 44 44 44 87 87 87 87 87 184 184 55 55 55 55 163 163
 163 163 163 163 147 147 147 77 77 77 77 77 44 44 44 44 87 87 87 87
 87 184 184 184 55 55 55 163 163 163 163 163 163 147 147 147 77 77 77 77
 77 44 44 44 44 87 87 87 87 87 184 184 184 184 55 163 163 163 163 163
 163 163 147 147 147 77 77 77 77 237 237 44 44 44 87 87 87 87 87 184
 67 67 67 67 163 163 163 163 163 163 163 147 147 77 77 77 77 77 237 237
 237 237 44 87 80 80 80 125 67 67 67 67 67 160 192 192 192 192 192 192
 147 147 77 203 203 203 203 237 237 237 237 237 80 80 80 80 125 67 67 67
 67 67 67 192 192 192 192 192 192 192 190 203 203 203 203 203 25 25 25 25
 25 80 80 80 80 125 125 125 125 125 125 229 229 229 192 192 192 192 192 190
 203 203 203 203 203 25 25 25 25 80 80 80 80 80 80 125 125 125 125 125
 229 229 229 229 229 192 192 192 190 203 203 203 203 25 25 25 25 25 25 80
 80 80 80 80 125 125 125 13 13 13 229 229 229 229 34 37 37 37 37 203
 203 203 25 25 25 25 25 80 80 80 80 80 1 1 125 13 13 13 13 13
 13 34 34 34 34 37 37 117 117 117 117 117 25 25 25 25 80 80 80 80
 1 1 1 1 13 13 13 13 13 13 34 34 34 34 37 37 117 117 117 117
 117 221 221 221 221 216 80 80 80 1 1 1 1 13 13 13 13 13 13 34
 34 34 34 37 37 11 11 11 11 11 22 221 221 221 216 216 80 129 129 129
 129 129 13 13 13 13 13 13 34 34 34 34 37 11 11 11 11 11 11 22
 22 221 216 216 103 103 129 129 129 129 129 182 188 188 188 188 132 132 132 132
 132 132 11 11 11 11 22 22 22 84 84 84 103 103 103 129 129 129 129 129
 85 85 188 188 188 132 132 132 132 132 132 132 11 11 11 22 22 22 84 84
 84 84 103 103 69 69 69 85 85 85 85 188 188 188 132 132 132 132 132 132
 132 11 11 11 22 22 84 84 84 84 84 103 103 69 69 69 85 85 85 85
 188 188 132 132 132 132 132 132 99 99 99 99 11 11 22 84 84 84 84 84
 103 49 69 69 85 85 85 85 85 85 188 132 132 132 132 132 132 99 99 99
 99 99 11 84 84 84 84 84 110 49 49 49 159 85 85 85 85 85 85 132
 132 132 132 132 132 99 99 99 99 99 99 99 12 12 12 84 110 110 49 49
 49 49 159 159 85 85 85 173 173 173 132 132 132 132 99 99 99 99 99 99
 99 12 74 74 74 110 110 49 49 49 49 28 28 28 196 196 173 173 173 173
 173 132 107 99 99 99 99 99 99 74 74 74 74 74 110 110 110 49 49 49
 49 28 196 196 196 173 173 173 173 173 107 107 107 107 107 99 99 74 74 74
 74 74 74 110 110 110 49 49 49 49 28 196 196 196 196 173 173 173 173 107
 107 107 107 107 107 74 74 74 74 74 74 74 110 110 110 49 49 49 49 49
 196 196 196 196 173 173 173 173 107 107 107 107 107 75 74 74 74 74 74 74
 220 220 110 110 49 49 49 49 49 196 196 196 196 173 173 173 179 179 107 107
 107 235 20 20 20 74 74 74 220 220 220 110 8 8 8 49 208 208 55 55
 55 55 55 179 179 179 179 179 179 235 235 20 20 20 20 74 74 220 44 44
 208 208 208 208 208 208 208 55 55 55 55 55 179 179 179 179 179 235 235 235
 20 20 20 20 74 44 44 44 44 44 208 208 208 208 208 208 55 55 55 55
 55 55 163 163 163 163 163 235 235 20 20 20 20 77 44 44 44 44 44 208
 208 208 208 208 184 184 55 55 55 55 163 163 163 163 163 163 147 147 147 77
 77 77 77 77 44 44 44 44 44 87 87 87 87 184 184 184 55 55 55 163
 163 163 163 163 163 147 147 147 77 77 77 77 77 44 44 44 44 44 87 87
 87 87 184 184 184 184 55 163 163 163 163 163 163 163 147 147 147 77 77 77
 77 77 44 44 44 44 87 87 87 87 87 184 184 184 184 184 163 163 163 163
 163 163 163 147 147 147 77 77 77 77 77 105 44 44 44 87 87 87 87 87
 184 67 67 67 67 163 163 163 163 163 163 163 147 147 77 77 77 77 77 203
 237 237 44 44 87 87 80 80 125 67 67 67 67 67 67 192 192 192 192 192
 192 147 147 77 203 203 203 203 203 237 237 237 44 80 80 80 80 125 67 67
 67 67 67 67 192 192 192 192 192 192 192 147 203 203 203 203 203 203 25 25
 25 80 80 80 80 80 125 125 125 125 125 125 125 229 192 192 192 192 192 192
 192 203 203 203 203 203 25 25 25 25 80 80 80 80 80 125 125 125 125 125
 125 125 229 229 229 192 192 192 192 192 203 203 203 203 203 25 25 25 25 80
 80 80 80 80 80 125 125 125 13 13 13 13 229 229 229 34 192 192 192 117
 117 117 117 117 117 25 25 25 80 80 80 80 80 80 125 125 125 13 13 13
 13 193 193 193 193 193 193 117 117 117 117 117 117 221 221 221 221 80 80 80
 80 80 1 1 125 13 13 13 13 13 193 193 193 193 193 193 193 117 117 117
 117 117 221 221 221 221 221 80 80 80 129 129 129 129 13 13 13 13 13 193
 193 193 193 193 193 193 11 11 11 11 11 221 221 221 221 221 103 103 129 129
 129 129 129 13 13 13 13 13 193 193 193 193 193 23 11 11 11 11 11 11
 11 221 221 221 103 103 103 129 129 129 129 129 129 13 188 188 188 132 132 132
 132 132 132 11 11 11 11 11 11 22 221 234 234 103 103 103 103 129 129 129
 129 85 85 188 188 188 132 132 132 132 132 132 11 11 11 11 11 22 22 84
 84 84 103 103 103 103 223 223 85 85 85 85 85 188 188 132 132 132 132 132
 132 11 11 11 11 11 22 84 84 84 84 103 103 103 223 223 223 85 85 85
 85 85 188 132 132 132 132 132 132 99 99 99 11 11 11 22 12 84 84 84
 103 103 103 223 223 223 85 85 85 85 85 46 132 132 132 132 132 99 99 99
 99 99 99 11 12 12 12 12 213 213 103 49 49 223 85 85 85 85 85 85
 46 132 132 132 132 132 99 99 99 99 99 99 12 12 12 12 12 213 213 213
 49 49 49 49 85 85 85 85 46 46 173 132 132 132 132 99 99 99 99 99
 99 12 12 12 12 213 213 213 213 49 49 49 49 28 85 85 196 173 173 173
 173 173 132 42 99 99 99 99 99 74 12 12 74 74 74 213 213 213 49 49
 49 49 49 196 196 196 173 173 173 173 173 42 42 42 42 42 99 74 74 74
 74 74 74 74 213 213 213 49 49 49 49 49 196 196 196 196 173 173 173 42
 42 42 42 42 42 42 74 74 74 74 74 74 74 213 213 213 49 49 49 49
 49 196 196 196 196 173 173 65 179 42 42 42 42 42 42 74 74 74 74 74
 74 74 213 213 213 213 49 49 49 49 196 196 196 65 65 65 65 179 179 179
 179 42 42 20 20 74 74 74 74 74 74 213 213 213 213 49 49 49 233 233
 155 155 155 65 179 179 179 179 179 179 179 235 20 20 20 74 74 74 74 44
 44 208 208 208 208 208 208 233 233 155 55 55 55 179 179 179 179 179 179 235
 235 20 20 48 48 48 44 44 44 44 44 208 208 208 208 208 233 233 55 55
 55 55 179 179 179 179 179 179 179 235 20 20 20 48 77 44 44 44 44 44
 208 208 208 208 208 233 184 184 184 55 55 163 163 163 163 163 163 147 147 147
 77 77 77 77 77 44 44 44 44 44 208 87 87 87 184 184 184 184 55 163
 163 163 163 163 163 163 147 147 147 77 77 77 77 77 44 44 44 44 44 87
 87 87 87 184 184 184 184 184 163 163 163 163 163 163 163 147 147 147 77 77
 77 77 105 105 44 44 44 44 87 87 87 87 184 184 184 184 184 163 163 163
 163 163 163 163 147 147 147 77 77 77 77 105 105 105 44 44 44 87 87 87
 87 125 184 67 67 67 163 163 163 163 163 163 163 147 147 77 77 77 77 77
 105 105 105 44 44 44 87 80 125 125 125 67 67 67 67 67 192 192 192 192
 192 192 209 147 77 203 203 203 203 203 105 105 44 80 80 80 80 80 125 125
 125 125 125 125 125 192 192 192 192 192 192 209 209 203 203 203 203 203 203 25
 25 25 80 80 80 80 80 125 125 125 125 125 125 125 192 192 192 192 192 192
 209 209 203 203 203 203 203 25 25 25 25 80 80 80 80 80 125 125 125 125
 125 125 125 13 192 192 192 192 192 209 209 203 203 203 203 203 25 25 25 25
 80 80 80 80 80 125 125 125 125 125 13 13 13 229 193 193 193 193 209 117
 117 117 117 117 117 117 117 221 221 80 80 80 80 80 80 125 125 125 13 13
 13 13 193 193 193 193 193 193 117 117 117 117 117 117 221 221 221 221 221 80
 80 80 80 1 125 125 13 13 13 13 13 193 193 193 193 193 193 63 117 117
 117 117 117 221 221 221 221 221 221 80 80 129 129 129 129 13 13 13 13 13
 193 193 193 193 193 23 23 117 117 117 117 221 221 221 221 221 221 103 103 129
 129 129 129 129 129 13 13 13 13 193 193 193 193 23 23 23 11 11 11 11
 221 221 221 221 221 103 103 103 103 129 129 129 129 85 85 13 13 60 60 60
 60 60 23 23 11 11 11 11 11 11 11 234 234 234 103 103 103 103 129 129
 129 85 85 85 85 60 60 60 60 60 60 60 60 11 11 11 11 11 11 22
 234 234 103 103 103 103 103 223 223 85 85 85 85 85 85 60 60 60 60 60
 60 60 60 11 11 11 11 11 12 12 12 103 103 103 103 223 223 223 85 85
 85 85 85 60 60 60 60 60 60 60 60 99 99 11 11 11 11 12 12 12
 103 103 103 103 223 223 223 85 85 85 85 85 46 60 60 60 60 60 60 99
 99 99 99 11 12 12 12 12 12 213 213 103 103 49 223 85 85 85 85 85
 46 46 46 60 60 60 60 60 99 99 99 99 99 12 12 12 12 12 213 213
 213 213 49 49 85 85 85 85 85 46 46 46 60 60 60 60 99 99 99 99
 99 99 12 12 12 12 213 213 213 213 213 49 49 49 85 85 85 85 46 46
 46 60 60 42 42 42 42 42 99 99 12 12 12 74 74 213 213 213 213 213
 49 49 49 49 85 196 196 46 173 173 65 42 42 42 42 42 42 42 42 74
 74 74 74 74 74 213 213 213 213 49 49 49 49 49 196 196 65 65 65 65
 42 42 42 42 42 42 42 42 74 74 74 74 74 74 213 213 213 213 49 49
 49 49 49 196 155 65 65 65 65 65 42 42 42 42 42 42 74 74 74 74
 74 74 74 213 213 213 213 213 49 49 233 233 155 155 65 65 65 65 65 179
 179 42 42 42 42 48 48 74 74 74 74 74 213 213 213 213 213 233 233 233
 233 155 155 155 65 65 65 179 179 179 179 42 42 48 48 48 48 48 74 74
 44 213 213 213 208 208 233 233 233 233 155 155 155 155 39 179 179 179 179 179
 179 235 48 48 48 48 48 48 44 44 44 208 208 208 208 233 233 233 233 155
 155 155 155 39 179 179 179 179 179 179 235 48 48 48 48 48 44 44 44 44
 44 208 208 208 233 233 233 233 184 155 155 155 163 163 163 179 163 163 163 147
 147 77 77 77 77 77 44 44 44 44 44 208 87 233 233 233 184 184 184 155
 163 163 163 163 163 163 163 147 147 147 77 77 77 77 105 105 44 44 44 44
 87 87 87 233 233 184 184 184 184 163 163 163 163 163 163 163 147 147 147 77
 77 77 77 105 105 105 44 44 44 87 87 87 87 184 184 184 184 184 163 163
 163 163 163 163 163 147 147 147 77 77 77 77 105 105 105 105 44 44 87 87
 87 87 125 125 125 125 144 163 163 163 163 163 163 209 209 209 77 77 77 77
 77 105 105 105 105 44 44 87 80 125 125 125 125 125 125 144 144 192 192 192
 192 209 209 209 209 209 203 203 203 203 105 105 105 105 80 80 80 80 125 125
 125 125 125 125 125 125 192 192 192 192 209 209 209 209 209 203 203 203 203 203
 105 105 105 80 80 80 80 80 125 125 125 125 125 125 125 192 192 192 192 209
 209 209 209 209 203 203 203 203 117 117 25 25 80 80 80 80 80 125 125 125
 125 125 125 125 13 192 192 192 209 209 209 209 209 117 117 117 117 117 117 25
 80 80 80 80 80 80 125 125 125 125 125 13 13 13 193 193 193 193 209 209
 209 117 117 117 117 117 117 234 234 221 36 36 80 80 80 80 125 125 125 13
 13 199 199 199 193 193 193 193 193 63 117 117 117 117 117 234 234 221 221 221
 221 80 80 80 1 125 125 125 13 13 199 199 199 193 193 193 193 63 63 63
 117 117 117 117 221 221 221 221 221 221 221 103 129 129 129 129 95 13 13 199
 199 199 193 193 193 23 23 63 117 117 117 117 221 221 221 221 221 221 221 103
 103 129 129 129 129 95 95 13 13 176 176 176 176 23 23 23 23 63 11 11
 11 221 221 234 234 221 221 103 103 103 129 129 129 85 85 85 198 198 60 60
 60 60 23 23 23 23 11 11 11 11 221 234 234 234 234 103 103 103 103 129
 85 85 85 85 85 85 60 60 60 60 60 60 60 60 60 11 11 11 11 11
 234 234 234 234 103 103 103 103 223 223 85 85 85 85 85 60 60 60 60 60
 60 60 60 60 11 11 11 11 11 12 12 12 103 103 103 103 103 223 223 85
 85 85 85 85 60 60 60 60 60 60 60 60 99 99 11 11 11 11 12 12
 12 103 103 103 103 103 223 223 85 85 85 85 46 46 46 60 60 60 60 60
 60 99 99 99 11 12 12 12 12 12 12 103 103 103 207 223 85 85 85 85
 46 46 46 46 60 60 60 60 60 60 99 99 99 12 12 12 12 12 12 12
 213 213 213 49 207 85 85 85 85 46 46 46 46 60 60 60 60 60 42 99
 99 99 12 12 12 12 12 12 213 213 213 213 213 49 49 85 85 228 46 46
 46 46 60 42 42 42 42 42 42 42 42 12 12 12 12 12 213 213 213 213
 213 213 49 49 49 228 228 228 46 46 65 65 42 42 42 42 42 42 42 42
 12 12 12 74 74 213 213 213 213 213 213 49 49 49 66 66 66 65 65 65
 65 42 42 42 42 42 42 42 42 74 74 74 74 74 74 213 213 213 213 213
 49 49 49 66 66 155 65 65 65 65 65 42 42 42 42 42 42 42 74 74
 74 74 74 74 213 213 213 213 213 213 233 233 155 155 155 155 65 65 65 65
 65 42 42 42 42 42 48 48 48 48 48 74 74 213 213 213 213 213 233 233
 233 155 155 155 155 65 65 65 65 179 179 179 42 42 48 48 48 48 48 48
 48 48 45 45 45 233 233 233 233 233 233 155 155 155 155 39 39 179 179 179
 179 42 42 48 48 48 48 48 48 48 133 133 45 208 233 233 233 233 233 233
 155 155 155 155 39 39 179 179 179 179 179 179 48 48 48 48 48 48 133 133
 133 133 208 233 233 233 233 233 233 233 155 155 155 39 39 179 179 179 179 179
 147 48 48 48 48 48 133 133 133 133 133 133 233 233 233 233 233 233 233 155
 155 155 163 163 163 163 163 163 147 147 236 77 77 77 77 105 133 133 133 133
 133 233 233 233 233 233 233 233 184 155 155 163 163 163 163 163 163 147 147 147
 77 77 77 77 105 105 133 133 133 133 87 87 233 233 233 233 184 184 144 204
 163 163 163 163 163 209 209 147 236 77 77 77 77 105 105 105 133 133 3 3
 87 87 233 125 125 144 144 144 144 93 93 163 209 209 209 209 209 209 77 77
 77 105 105 105 105 105 133 3 3 3 125 125 125 125 144 144 144 144 93 192
 209 209 209 209 209 209 209 218 203 203 203 105 105 105 105 36 36 36 80 125
 125 125 125 125 144 144 144 93 192 209 209 209 209 209 209 209 203 203 203 203
 105 105 105 36 36 36 36 80 125 125 125 125 125 125 144 144 93 209 209 209
 209 209 209 209 209 203 203 203 203 117 105 36 36 36 36 36 80 80 125 125
 125 125 125 144 144 199 199 209 209 209 209 209 209 209 117 117 117 117 117 117
 36 36 36 36 36 80 80 125 125 125 125 125 13 199 199 199 199 193 193 209
 209 209 117 117 117 117 117 234 234 234 36 36 36 36 36 36 36 125 125 125
 95 199 199 199 199 199 199 193 63 63 63 63 117 117 117 117 234 234 234 221
 221 36 36 36 36 36 125 95 95 95 95 199 199 199 199 193 193 23 63 63
 63 63 117 117 113 234 234 221 221 221 221 36 239 239 129 129 95 95 95 95
 199 199 199 176 176 23 23 23 63 63 63 113 113 221 221 221 221 221 221 221
 103 239 239 129 129 95 95 95 95 198 176 176 176 176 23 23 23 23 63 63
 113 221 221 221 234 234 221 221 103 103 239 239 129 129 85 95 95 198 198 176
 176 176 60 23 23 23 23 63 11 11 221 221 234 234 234 234 103 103 103 103
 103 85 85 85 85 85 198 198 198 60 60 60 60 60 60 60 11 11 11 221
 221 234 234 234 234 103 103 103 103 223 85 85 85 85 85 198 198 60 60 60
 60 60 60 60 60 60 11 11 11 11 234 234 234 103 103 103 103 103 207 85
 85 85 85 85 47 47 60 60 60 60 60 60 60 60 60 60 11 11 12 12
 12 12 103 103 103 103 207 207 85 85 85 85 85 46 46 46 60 60 60 60
 60 60 60 60 99 12 12 12 12 12 12 169 169 207 207 207 207 85 85 85
 85 46 46 46 46 60 60 60 60 60 60 60 60 89 12 12 12 12 12 169
 169 169 169 207 207 207 207 85 85 228 228 46 46 46 60 60 60 60 60 42
 42 42 89 12 12 12 12 12 169 169 169 213 213 207 207 207 228 228 228 228
 228 46 46 60 60 42 42 42 42 42 42 42 12 12 12 12 169 169 169 213
 213 213 213 49 49 228 228 228 228 228 82 82 65 42 42 42 42 42 42 42
 42 12 12 12 74 169 169 213 213 213 213 213 49 49 66 66 66 66 82 82
 65 65 65 42 42 42 42 42 42 42 74 74 74 74 74 169 213 213 213 213
 213 213 213 66 66 66 66 82 65 65 65 65 42 42 42 42 42 42 42 48
 48 48 48 74 74 213 213 213 213 213 233 233 233 155 155 155 155 65 65 65
 65 65 42 42 42 42 42 48 48 48 48 48 48 45 45 45 45 45 233 233
 233 233 155 155 155 155 65 65 65 65 65 42 42 42 42 48 48 48 48 48
 48 51 51 45 45 45 45 233 233 233 233 155 155 155 155 155 39 39 39 179
 179 179 42 64 64 48 48 48 48 48 51 51 51 45 45 45 233 233 233 233
 233 155 155 155 155 39 39 39 179 179 179 179 64 64 64 48 48 48 51 51
 51 133 133 133 233 233 233 233 233 233 233 155 155 155 39 39 39 179 179 179
 64 64 64 64 48 48 48 51 133 133 133 133 133 233 233 233 233 233 233 233
 155 155 155 39 39 163 163 163 163 236 236 236 236 236 48 48 51 133 133 133
 133 133 3 233 233 233 233 233 233 144 144 204 39 163 163 163 163 209 209 236
 236 236 236 236 77 105 133 133 133 133 3 3 3 233 233 233 233 144 144 144
 204 93 93 93 163 209 209 209 209 236 236 236 236 77 105 105 133 133 3 3
 3 3 233 233 233 144 144 144 144 144 93 93 93 209 209 209 209 209 218 218
 218 77 105 105 105 105 3 3 3 3 3 3 125 125 144 144 144 144 144 93
 93 93 209 209 209 209 209 218 218 218 218 54 105 105 105 36 36 36 36 36
 36 125 125 144 144 144 144 144 93 93 93 209 209 209 209 209 209 218 218 218
 54 105 105 36 36 36 36 36 36 125 125 125 125 144 144 144 144 93 93 209
 209 209 209 209 209 209 218 218 54 54 231 36 36 36 36 36 36 36 36 125
 125 125 144 144 144 144 199 199 199 209 209 209 209 209 209 117 117 117 117 117
 36 36 36 36 36 36 36 36 125 125 125 144 144 144 144 199 199 199 199 209
 209 63 63 63 117 117 117 117 113 234 234 36 36 36 36 36 36 36 136 136
 95 95 199 199 199 199 199 199 193 63 63 63 63 63 113 113 113 234 234 234
 221 30 30 30 36 36 36 95 95 95 95 95 199 199 199 199 199 63 63 63
 63 63 63 113 113 113 234 234 221 221 221 30 239 239 239 95 95 95 95 95
 95 199 199 199 176 176 23 23 63 63 63 63 113 113 113 221 221 221 221 221
 221 239 239 239 68 68 95 95 95 95 198 176 176 176 176 23 23 23 63 63
 63 113 113 221 221 221 221 221 221 239 239 239 239 68 68 68 95 95 198 198
 198 176 176 176 23 23 23 63 63 63 113 221 221 221 234 234 221 103 239 239
 239 239 68 68 68 68 198 198 198 198 60 60 60 60 60 60 60 63 11 11
 221 221 234 234 234 221 103 103 239 239 239 68 68 68 68 198 198 198 47 60
 60 60 60 60 60 60 60 11 11 221 221 12 234 234 103 103 103 103 207 207
 68 68 68 85 47 47 47 47 60 60 60 60 60 60 60 60 60 11 12 12
 12 12 169 169 103 207 207 207 207 207 85 85 85 47 47 47 47 60 60 60
 60 60 60 60 60 89 89 12 12 12 12 169 169 169 207 207 207 207 207 85
 85 228 228 46 46 46 60 60 60 60 60 60 60 89 89 89 12 12 12 169
 169 169 169 169 207 207 207 207 207 228 228 228 228 46 46 60 60 60 60 60
 42 42 89 89 89 12 12 12 169 169 169 169 169 207 207 207 207 228 228 228
 228 228 82 82 60 60 42 42 42 42 42 89 89 89 12 12 12 169 169 169
 169 169 213 213 207 210 210 228 228 228 228 82 82 82 42 42 42 42 42 42
 42 89 89 89 12 169 169 169 169 169 213 213 213 49 210 66 66 66 66 82
 82 82 65 65 42 42 42 42 42 42 89 89 89 89 48 169 169 213 213 213
 213 213 213 233 66 66 66 66 82 82 65 65 65 42 42 42 42 42 42 42
 48 48 48 48 48 224 45 45 45 45 45 233 233 233 155 155 155 155 65 65
 65 65 65 42 42 42 42 42 48 48 48 48 48 48 45 45 45 45 45 45
 233 233 233 155 155 155 155 65 65 65 65 65 42 42 42 42 48 48 48 48
 48 48 51 51 45 45 45 45 45 233 233 233 233 155 155 155 43 39 39 39
 39 179 42 42 64 64 64 48 48 48 51 51 51 51 45 45 45 233 233 233
 233 233 155 155 155 43 39 39 39 39 179 179 64 64 64 64 48 48 48 51
 51 51 133 133 45 45 233 233 233 233 233 233 155 155 43 43 39 39 39 179
 64 64 64 64 64 64 48 48 51 51 133 133 133 133 233 233 233 233 233 233
 233 155 155 43 43 39 39 39 163 236 236 236 236 236 236 236 51 51 51 133
 133 133 3 3 233 233 233 233 233 233 144 144 204 204 93 93 93 209 209 236
 236 236 236 236 236 51 51 133 133 133 3 3 3 3 233 233 233 144 144 144
 144 204 93 93 93 93 209 209 209 236 236 236 236 236 236 105 105 133 3 3
 3 3 3 3 233 144 144 144 144 144 144 93 93 93 209 209 209 209 209 218
 218 218 54 54 54 105 3 3 3 3 3 3 3 144 144 144 144 144 144 144
 93 93 93 209 209 209 209 209 218 218 218 54 54 54 105 36 36 36 36 36
 36 36 144 144 144 144 144 144 144 93 93 93 209 209 209 209 209 218 218 218
 54 54 231 231 36 36 36 36 36 36 36 125 144 144 144 144 144 144 93 93
 93 209 209 209 209 209 218 218 218 54 54 231 231 36 36 36 36 36 36 36
 36 144 144 144 144 144 144 199 199 199 209 209 209 209 209 63 218 218 54 113
 231 231 36 36 36 36 36 36 36 36 144 144 144 144 144 144 199 199 199 199
 209 63 63 63 63 63 113 113 113 113 113 30 30 30 30 36 36 36 36 136
 136 136 136 136 199 199 199 199 199 230 63 63 63 63 63 113 113 113 113 234
 234 30 30 30 30 30 30 136 136 136 136 136 136 199 199 199 199 199 63 63
 63 63 63 63 113 113 113 221 221 221 30 30 30 30 30 239 239 95 95 95
 95 95 95 199 176 176 176 176 63 63 63 63 63 113 113 113 221 221 221 221
 180 180 180 239 239 68 68 68 95 95 95 198 176 176 176 176 176 23 63 63
 63 63 113 113 221 221 221 221 221 180 180 239 239 239 68 68 68 68 95 198
 198 198 176 176 176 176 23 63 63 63 63 113 221 221 221 221 221 221 180 239
 239 239 239 68 68 68 68 198 198 198 198 198 176 60 60 60 60 63 63 63
 113 221 221 221 234 221 221 103 239 239 239 239 68 68 68 68 198 198 47 198
 60 60 60 60 60 60 60 63 63 89 221 221 12 234 221 103 103 207 207 207
 207 68 68 68 68 47 47 47 47 60 60 60 60 60 60 60 60 89 89 89
 12 12 169 169 169 207 207 207 207 207 207 68 85 68 47 47 47 47 60 60
 60 60 60 60 60 89 89 89 89 12 12 169 169 169 169 207 207 207 207 207
 207 228 228 228 47 47 47 60 60 60 60 60 60 89 89 89 89 89 12 169
 169 169 169 169 169 207 207 207 207 210 228 228 228 228 46 46 60 60 60 60
 60 42 89 89 89 89 89 89 169 169 169 169 169 169 207 207 207 210 210 228
 228 228 228 82 82 82 60 42 42 42 42 89 89 89 89 89 89 169 169 169
 169 169 169 213 210 210 210 210 228 228 228 228 82 82 82 42 42 42 42 42
 42 89 89 89 89 89 224 169 169 169 169 169 213 210 210 210 210 66 66 66
 82 82 82 82 65 42 42 42 42 42 89 89 89 89 89 224 224 224 224 169
 213 45 45 210 210 66 66 66 66 82 82 82 65 65 42 42 42 42 42 42
 89 89 89 48 224 224 224 45 45 45 45 45 233 233 66 66 66 66 82 82
 65 65 65 65 42 42 42 42 42 48 48 48 48 224 224 224 45 45 45 45
 45 233 233 233 155 155 155 43 43 43 43 65 65 42 42 42 42 64 48 48
 48 48 51 51 51 45 45 45 45 45 233 233 233 233 155 155 43 43 43 43
 43 43 43 42 227 64 64 64 48 48 48 51 51 51 51 45 45 45 45 233
 233 233 233 155 155 43 43 43 43 43 43 43 64 64 64 64 64 64 48 48
 51 51 51 51 45 45 45 233 233 233 233 233 233 155 43 43 43 43 43 43
 43 64 64 64 64 64 64 48 51 51 51 51 133 133 3 233 233 233 233 233