# vtk DataFile Version 2.0
Data set from ImportExport Version 6.5.171.b0b162591
ASCII

DATASET RECTILINEAR_GRID
DIMENSIONS 30 30 30
X_COORDINATES 30 float
-1.250000 1.250000 3.750000 6.250000 8.750000 11.250000 13.750000 16.250000 18.750000 21.250000 23.750000 26.250000 28.750000 31.250000 33.750000 36.250000 38.750000 41.250000 43.750000 46.250000 48.750000 
51.250000 53.750000 56.250000 58.750000 61.250000 63.750000 66.250000 68.750000 71.250000 
Y_COORDINATES 30 float
-1.250000 1.250000 3.750000 6.250000 8.750000 11.250000 13.750000 16.250000 18.750000 21.250000 23.750000 26.250000 28.750000 31.250000 33.750000 36.250000 38.750000 41.250000 43.750000 46.250000 48.750000 
51.250000 53.750000 56.250000 58.750000 61.250000 63.750000 66.250000 68.750000 71.250000 
Z_COORDINATES 30 float
-1.250000 1.250000 3.750000 6.250000 8.750000 11.250000 13.750000 16.250000 18.750000 21.250000 23.750000 26.250000 28.750000 31.250000 33.750000 36.250000 38.750000 41.250000 43.750000 46.250000 48.750000 
51.250000 53.750000 56.250000 58.750000 61.250000 63.750000 66.250000 68.750000 71.250000 
CELL_DATA 24389
SCALARS FeatureIds int 1
LOOKUP_TABLE default
 170 170 170 170 170 170 111 111 111 142 142 142 142 142 142 142 142 36 36 163
 163 163 232 232 232 232 191 191 191 170 170 170 170 170 170 111 111 111 47 142
 142 142 142 142 142 36 36 36 36 163 232 232 232 232 232 191 191 191 44 170
 170 170 170 170 170 111 111 47 142 142 142 142 142 36 36 36 36 36 243 243
 232 232 232 232 191 191 191 44 44 170 170 170 170 185 185 185 185 185 142 142
 36 36 36 36 36 36 36 36 243 243 232 232 232 191 191 191 44 44 44 170
 170 185 185 185 185 185 185 185 36 36 36 36 36 36 36 36 36 243 243 232
 14 232 44 44 44 44 44 44 185 185 185 185 185 185 185 185 178 36 36 36
 36 36 36 36 36 36 14 14 14 14 14 14 44 44 44 44 44 185 185 185
 185 185 185 185 178 178 178 36 36 36 36 36 36 36 36 14 14 14 14 14
 14 44 44 44 44 44 185 185 185 185 185 185 178 178 178 178 178 36 36 36
 36 36 36 36 14 14 14 14 14 14 44 44 44 44 160 160 160 160 160 185
 178 178 178 178 178 178 36 36 36 36 36 36 36 14 14 14 14 14 14 59
 44 44 160 160 160 160 160 160 160 178 178 178 178 178 178 136 136 36 36 36
 36 36 14 14 14 59 59 59 59 59 44 160 160 160 160 160 16 16 200 178
 178 178 178 136 136 136 136 36 70 70 70 70 70 59 59 59 59 59 59 227
 227 227 160 160 16 16 16 200 178 178 178 136 136 136 136 136 136 70 70 70
 70 70 70 59 59 59 59 59 227 227 227 227 160 16 16 16 68 68 68 40
 40 40 40 40 40 70 70 70 70 70 70 70 59 59 59 59 59 227 227 227
 227 227 16 16 16 68 68 68 40 40 40 40 40 40 70 70 70 70 70 70
 70 70 59 59 17 17 227 227 227 227 227 227 16 16 68 68 138 138 40 40
 40 40 154 154 70 70 70 70 70 70 70 132 132 132 132 132 227 227 227 227
 227 192 192 68 138 138 138 138 40 40 154 154 154 70 70 70 70 70 70 70
 132 132 132 132 132 132 227 227 227 227 192 192 192 192 138 138 138 40 40 154
 154 154 70 70 70 195 195 195 132 132 132 132 132 132 132 132 93 93 93 192
 192 192 192 192 192 192 192 190 154 154 154 72 195 195 195 195 195 195 132 132
 132 132 132 132 132 93 93 93 192 192 192 192 192 192 192 190 190 190 190 72
 72 72 195 195 195 195 195 132 132 132 132 132 35 35 93 93 93 192 192 192
 192 192 192 192 190 190 190 48 48 72 72 72 195 195 195 195 132 132 132 132
 35 35 35 35 93 93 192 192 192 126 192 192 192 190 190 190 48 48 48 72
 72 195 195 195 195 42 42 42 42 35 35 35 35 147 147 147 147 126 126 126
 192 192 190 190 48 48 48 48 48 72 195 195 195 42 42 42 42 42 35 35
 35 35 147 147 147 147 147 126 126 126 192 190 190 48 48 48 48 48 48 168
 168 168 168 42 42 42 42 42 35 35 199 199 147 147 147 147 126 126 126 142
 144 144 144 48 48 48 48 48 168 168 168 168 42 42 42 42 42 35 199 199
 199 199 219 147 147 142 142 142 142 144 144 144 144 144 48 48 102 102 102 102
 168 168 42 42 42 42 199 199 199 199 199 199 219 142 142 142 142 142 144 144
 144 144 144 144 102 102 102 102 102 102 102 43 43 43 199 199 199 199 199 199
 199 199 142 142 142 142 142 142 144 144 144 144 144 102 102 102 102 102 102 102
 43 43 43 199 199 199 199 199 199 199 199 142 142 142 142 142 142 142 144 144
 144 144 102 102 102 102 102 102 102 43 43 43 74 199 199 199 199 111 111 111
 111 142 142 142 142 142 142 144 144 144 144 102 102 102 102 102 102 102 43 43
 43 170 170 170 170 170 170 111 111 111 1 142 142 142 142 142 142 36 36 163
 163 163 163 163 64 64 64 64 191 191 170 170 170 170 170 170 111 111 111 1
 1 142 142 142 142 36 36 36 36 163 163 163 163 64 64 64 64 191 191 44
 170 170 170 170 170 111 111 1 1 1 1 142 142 55 36 36 36 36 243 243
 243 243 64 64 64 64 191 191 44 44 170 170 170 170 185 185 185 185 1 1
 55 55 55 36 36 36 36 36 243 243 243 243 64 64 64 44 44 44 44 44
 170 170 185 185 185 185 185 185 185 55 55 55 36 36 36 36 36 243 243 243
 243 14 14 44 44 44 44 44 44 44 185 185 185 185 185 185 185 178 55 55
 55 36 36 36 36 36 36 243 14 14 14 14 14 44 44 44 44 44 44 185
 185 185 185 185 185 178 178 178 55 55 36 36 36 36 36 36 14 14 14 14
 14 14 44 44 44 44 44 44 185 185 185 185 185 178 178 178 178 178 36 36
 36 36 36 36 14 14 14 14 14 14 14 44 44 44 44 44 160 160 160 160
 185 178 178 178 178 178 178 178 36 36 36 36 36 14 14 14 14 14 14 14
 44 44 44 44 160 160 160 160 160 160 178 178 178 178 178 178 136 136 36 36
 36 36 14 14 14 14 59 59 59 59 44 17 160 160 160 160 160 160 160 160
 178 178 178 178 136 136 136 136 121 70 70 70 70 70 59 59 59 59 59 59
 17 227 227 160 160 16 160 160 160 178 178 178 136 136 136 136 136 121 70 70
 70 70 70 59 59 59 59 59 17 17 227 227 227 160 160 160 160 160 178 178
 40 40 40 40 40 40 70 70 70 70 70 70 70 59 59 59 59 17 17 227
 227 227 227 160 160 160 160 68 221 40 40 40 40 40 40 70 70 70 70 70
 70 70 59 59 17 17 17 17 227 227 227 227 227 160 160 68 221 221 40 40
 40 40 40 154 70 70 70 70 70 70 70 70 17 17 17 17 132 227 227 227
 227 227 160 192 221 221 221 221 221 40 40 40 154 70 70 70 70 70 70 70
 70 132 132 132 132 132 132 227 227 93 93 192 192 192 192 221 221 221 221 40
 154 154 154 70 70 195 195 195 195 195 132 132 132 132 132 132 132 93 93 93
 93 192 192 192 192 192 192 190 190 190 157 157 157 195 195 195 195 195 195 132
 132 132 132 132 132 132 93 93 93 93 192 192 192 192 192 192 190 190 190 157
 157 157 195 195 195 195 195 195 132 132 132 132 132 35 35 93 93 93 93 192
 192 192 192 192 192 190 190 190 157 157 157 195 195 195 195 195 195 132 132 132
 132 35 35 35 35 93 93 93 192 192 192 192 192 190 190 190 190 190 157 157
 195 195 195 195 195 195 42 42 42 42 35 35 35 35 147 147 147 147 126 126
 126 192 192 190 190 190 48 48 48 48 195 195 195 195 195 42 42 42 42 35
 35 35 35 147 147 147 147 147 126 126 126 192 190 190 190 48 48 48 48 48
 168 168 168 168 42 42 42 42 35 35 35 199 219 147 147 147 147 126 126 126
 144 144 144 144 144 48 48 48 102 102 168 168 168 42 42 42 42 35 35 199
 199 199 219 219 147 147 147 142 142 142 144 144 144 144 144 144 102 102 102 102
 102 102 42 42 42 42 35 199 199 199 199 219 219 219 147 142 142 142 142 144
 144 144 144 144 144 102 102 102 102 102 102 102 42 42 42 199 199 199 199 219
 219 219 219 142 142 142 142 142 142 144 144 144 144 144 102 102 102 102 102 102
 102 43 43 43 74 199 199 199 219 219 219 111 142 142 142 142 142 142 144 144
 144 144 144 102 102 102 102 102 102 102 43 43 43 74 74 199 199 170 111 111
 111 111 142 142 142 142 142 142 144 144 144 144 102 102 102 102 102 64 64 43
 43 43 74 74 170 170 170 170 111 111 1 1 1 142 142 142 142 23 23 23
 163 163 163 163 163 64 64 64 64 64 191 74 170 170 170 170 170 111 111 1
 1 1 1 142 142 23 55 23 36 163 163 163 163 163 64 64 64 64 64 191
 44 127 127 170 170 170 111 111 1 1 1 1 142 55 55 55 36 36 36 243
 243 243 243 64 64 64 64 64 44 44 44 127 127 170 170 185 185 185 1 1
 1 55 55 55 55 36 36 36 243 243 243 243 243 64 64 64 44 44 44 44
 44 127 185 185 185 185 185 185 1 24 55 55 55 55 36 36 36 36 243 243
 243 243 14 14 44 44 44 44 44 44 127 185 185 185 185 185 185 185 55 55
 55 55 55 36 36 36 36 243 243 14 14 14 14 44 44 44 44 44 44 127
 185 185 185 185 185 185 178 178 178 55 55 55 36 36 36 36 36 14 14 14
 14 14 44 44 44 44 44 44 44 185 185 185 185 185 178 178 178 178 55 55
 55 36 36 36 36 14 14 14 14 14 14 14 44 44 44 44 44 16 16 16
 16 185 178 178 178 178 178 178 178 36 36 36 36 36 14 14 14 14 14 14
 14 44 44 44 44 16 16 16 16 16 160 178 178 178 178 178 178 136 136 36
 36 36 36 14 14 14 14 14 14 59 59 44 17 160 160 16 16 16 160 160
 160 178 178 178 178 136 136 136 121 121 121 70 70 70 14 59 59 59 59 59
 59 17 227 227 16 16 16 160 160 160 178 178 178 136 136 136 136 121 121 121
 70 70 70 70 59 59 59 59 17 17 17 227 227 227 16 160 160 160 160 178
 178 40 40 40 40 40 121 121 70 70 70 70 70 70 59 59 17 17 17 17
 227 227 227 227 160 160 160 160 221 221 40 40 40 40 40 121 121 70 70 70
 70 70 70 59 17 17 17 17 17 227 227 227 227 227 160 160 221 221 221 221
 221 40 40 40 40 70 70 70 70 70 70 70 17 17 17 17 17 132 227 227
 227 227 227 116 116 221 221 221 221 221 221 40 40 40 70 70 70 70 70 70
 195 195 132 132 132 132 132 132 227 93 93 93 116 116 192 221 221 221 221 221
 40 134 157 157 70 70 195 195 195 195 195 132 132 132 132 132 132 132 93 93
 93 93 192 192 192 192 221 221 221 190 157 157 157 157 195 195 195 195 195 195
 132 132 132 132 132 132 93 93 93 93 93 192 192 192 192 192 192 190 190 190
 157 157 157 195 195 195 195 195 195 132 132 132 132 35 35 35 93 93 93 93
 192 192 192 192 192 190 190 190 190 157 157 157 157 195 195 195 195 195 132 132
 132 132 35 35 35 35 93 93 93 192 192 192 192 192 190 190 190 190 157 157
 157 157 195 195 195 195 195 42 42 42 42 35 35 35 35 93 93 93 147 126
 126 126 192 190 190 190 190 157 157 157 107 107 81 81 81 81 42 42 42 42
 35 35 35 35 147 147 147 147 147 126 126 126 190 190 190 190 48 48 48 107
 107 81 81 81 81 42 42 42 42 35 35 35 35 219 147 147 147 147 126 126
 126 144 144 144 144 144 144 48 107 107 81 81 81 81 42 42 42 42 35 35
 35 219 219 219 219 147 147 147 142 142 142 144 144 144 144 144 144 144 102 102
 102 102 78 78 42 42 42 35 199 199 219 219 219 219 219 147 142 142 142 142
 144 144 144 144 144 144 102 102 102 102 102 102 78 78 78 78 74 74 219 219
 219 219 219 219 142 142 142 142 142 142 144 144 144 144 144 102 102 102 102 102
 102 78 78 78 78 74 74 74 219 219 219 219 219 142 142 142 142 142 142 144
 144 144 144 144 102 102 102 102 102 64 64 78 78 43 74 74 74 170 170 170
 111 111 1 1 142 142 142 142 142 144 144 144 163 163 163 163 163 64 64 64
 64 64 74 74 74 74 170 170 170 111 1 1 1 1 1 142 142 23 23 23
 23 163 163 163 163 163 64 64 64 64 64 196 74 127 127 127 170 170 111 1
 1 1 1 1 142 23 23 23 23 23 163 163 163 163 163 64 64 64 64 64
 196 44 127 127 127 127 170 111 1 1 1 1 1 1 23 23 23 23 36 243
 243 243 243 243 243 64 64 64 196 196 44 127 127 127 127 127 185 185 1 1
 1 1 55 55 55 55 55 36 36 243 243 176 243 243 64 64 196 196 196 44
 44 127 127 127 185 185 185 185 185 24 24 55 55 55 55 55 36 36 243 243
 243 243 243 14 14 44 44 44 44 44 127 127 127 185 185 185 185 185 24 24
 24 55 55 55 55 36 36 36 243 243 14 14 14 14 44 44 44 44 44 44
 127 127 185 185 185 185 185 24 24 55 55 55 55 55 36 36 36 14 14 14
 14 14 14 44 44 44 44 44 44 127 16 185 185 185 185 178 178 178 178 55
 55 55 55 36 36 36 14 14 14 14 14 14 44 44 44 44 44 44 16 16
 16 16 185 178 178 178 178 178 178 55 55 36 36 36 36 14 14 14 14 14
 14 14 44 44 44 44 16 16 16 16 16 160 178 178 178 178 178 178 136 55
 121 121 121 14 14 14 14 14 14 14 14 44 44 17 17 16 16 16 16 160
 160 229 229 178 178 178 136 136 121 121 121 121 121 14 14 14 14 59 59 59
 17 17 17 17 227 16 16 16 160 160 229 229 229 178 136 136 136 121 121 121
 121 121 70 70 70 59 59 59 17 17 17 17 17 227 227 16 160 160 160 229
 229 229 40 40 40 40 121 121 121 121 70 70 70 70 70 59 17 17 17 17
 17 17 227 227 227 160 160 160 229 221 221 221 40 40 40 40 121 121 121 70
 70 70 70 70 17 17 17 17 17 17 17 227 227 227 227 160 116 116 221 221
 221 221 134 134 134 121 121 70 70 70 70 70 70 17 17 17 17 17 17 17
 227 227 227 116 116 116 116 221 221 221 221 134 134 134 134 70 70 70 70 70
 70 70 17 17 17 17 17 132 132 227 93 93 116 116 116 116 221 221 221 221
 134 134 134 134 110 110 110 195 195 195 195 195 132 132 132 132 132 132 93 93
 93 93 116 116 116 116 221 221 221 134 134 134 157 157 157 110 195 195 195 195
 195 132 132 132 132 132 132 93 93 93 93 93 116 192 192 192 192 192 190 190
 157 157 157 157 157 195 195 195 195 195 132 132 132 132 35 35 35 93 93 93
 93 93 192 192 192 192 190 190 190 190 157 157 157 157 195 195 195 195 195 132
 132 132 132 35 35 35 93 93 93 93 93 192 192 192 192 190 190 190 190 157
 157 157 107 107 81 81 81 81 81 42 42 42 35 35 35 35 93 93 93 93
 126 126 192 192 190 190 190 190 157 157 107 107 107 81 81 81 81 81 42 42
 42 35 35 35 35 95 93 147 147 126 126 126 126 190 190 190 117 117 34 107
 107 107 81 81 81 81 81 42 42 35 35 35 35 95 95 147 147 147 147 126
 126 126 190 117 117 117 117 34 107 107 107 81 81 81 81 78 78 42 42 35
 95 95 95 219 219 147 147 147 147 126 126 142 144 144 144 144 144 144 107 107
 81 81 78 78 78 78 78 78 74 74 74 219 219 219 219 219 147 142 142 142
 142 144 144 144 144 144 144 144 102 102 78 78 78 78 78 78 78 74 74 74
 219 219 219 219 219 142 142 142 142 142 142 144 144 144 144 144 144 102 102 78
 78 78 78 78 78 78 74 74 74 74 219 219 219 1 1 142 142 142 142 142
 144 144 144 144 144 163 163 102 102 78 78 78 78 78 74 74 74 74 74 170
 170 111 1 1 1 1 142 142 142 217 23 144 217 163 163 163 163 163 64 64
 64 64 64 74 74 74 74 74 170 170 83 83 1 1 1 1 142 23 23 23
 23 23 23 163 163 163 163 64 64 64 64 64 196 74 127 127 127 127 127 83
 83 83 1 1 1 1 23 23 23 23 23 23 163 163 163 163 64 64 64 64
 196 196 196 127 127 127 127 127 83 83 83 1 1 1 1 23 23 23 23 23
 243 243 243 243 243 243 64 64 196 196 196 196 127 127 127 127 127 83 83 1
 1 1 1 24 55 55 55 55 55 243 243 243 243 243 243 64 196 196 196 196
 44 127 127 127 127 127 185 185 185 185 24 24 24 55 55 55 55 55 36 243
 243 243 243 243 14 196 196 196 196 44 44 127 127 127 127 185 185 185 24 24
 24 24 55 55 55 55 55 36 36 243 243 14 14 14 14 44 44 44 44 44
 127 127 127 105 105 185 185 185 24 24 24 55 55 55 55 55 36 36 14 14
 14 14 14 14 44 44 44 44 44 44 127 105 105 105 105 105 178 24 24 24
 55 55 55 55 36 36 36 14 14 14 14 14 14 44 44 44 44 44 60 60
 16 105 105 105 105 178 178 178 178 178 55 55 55 36 36 14 14 14 14 14
 14 14 14 44 44 44 60 60 16 16 16 105 105 229 229 229 229 178 178 136
 121 121 121 121 121 14 14 14 14 14 14 14 44 44 17 60 60 16 16 16
 160 229 229 229 229 229 178 136 136 121 121 121 121 121 14 14 14 14 14 14
 17 17 17 17 17 227 16 16 16 160 229 229 229 229 229 136 136 121 121 121
 121 121 121 101 101 101 59 17 17 17 17 17 17 17 227 227 16 160 160 229
 229 229 229 229 40 40 40 121 121 121 121 121 101 101 101 101 17 17 17 17
 17 17 17 227 227 227 160 160 229 229 229 221 221 134 134 134 134 121 121 121
 101 101 101 101 101 17 17 17 17 17 17 17 227 227 227 116 116 116 116 221
 221 221 221 134 134 134 121 121 70 70 101 101 101 101 17 17 17 17 17 17
 17 227 227 116 116 116 116 116 221 221 221 221 134 134 134 134 110 110 110 110
 101 101 101 17 17 17 17 17 132 132 93 93 93 116 116 116 116 116 221 221
 134 134 134 134 134 110 110 110 110 195 195 195 195 132 132 132 132 132 132 93
 93 93 116 116 116 116 116 221 221 134 134 134 134 157 157 110 110 110 195 195
 195 195 132 132 132 132 132 93 93 93 93 93 116 116 116 116 116 192 134 190
 190 157 157 157 157 110 110 195 195 195 195 132 132 132 132 35 35 93 93 93
 93 93 116 116 192 192 192 190 190 190 157 157 157 157 157 107 81 81 81 81
 81 132 132 132 35 35 35 93 93 93 93 93 192 192 192 230 230 230 190 190
 157 157 157 107 107 81 81 81 81 81 81 42 42 35 35 35 95 93 93 93
 93 192 192 192 230 230 230 230 34 34 34 107 107 107 81 81 81 81 81 81
 42 35 35 35 95 95 95 95 93 93 126 126 126 230 230 230 117 117 34 34
 107 107 107 81 81 81 81 81 81 42 35 35 95 95 95 95 95 147 147 147
 126 126 230 230 230 117 117 117 34 107 107 107 81 81 81 81 78 78 78 78
 95 95 95 95 95 95 147 39 147 147 126 230 230 117 117 117 117 34 107 107
 107 81 81 78 78 78 78 78 78 74 74 74 95 95 95 39 39 39 39 142
 142 142 217 217 217 217 144 144 107 107 78 78 78 78 78 78 78 78 74 74
 74 74 219 219 219 39 39 39 142 142 142 217 217 217 217 217 217 217 78 78
 78 78 78 78 78 78 78 74 74 74 74 74 219 39 39 1 1 142 142 142
 217 217 217 217 217 217 163 163 163 78 78 78 78 78 78 74 74 74 74 74
 74 170 39 1 1 1 1 142 142 217 217 23 217 217 217 163 163 163 163 64
 64 64 78 78 74 74 74 74 74 127 83 83 83 83 83 1 1 3 23 23
 23 23 23 41 41 41 163 163 64 64 64 64 196 196 74 127 127 127 127 127
 83 83 83 83 1 1 3 23 23 23 23 23 41 41 41 163 163 64 64 64
 196 196 196 196 127 127 127 127 127 83 83 83 83 1 1 3 23 23 23 23
 23 41 41 243 243 243 243 64 196 196 196 196 196 127 127 127 127 127 83 83
 83 83 1 24 24 23 23 23 55 55 41 243 243 243 243 243 64 196 196 196
 196 196 127 127 127 127 127 127 185 83 24 24 24 24 24 55 55 55 55 36
 243 243 243 243 14 14 196 196 196 196 44 127 127 127 127 127 105 185 24 24
 24 24 24 24 55 55 55 55 36 233 233 233 14 14 14 14 196 196 44 44
 44 127 127 127 105 105 105 105 24 24 24 24 24 55 55 55 55 36 233 233
 233 14 14 14 14 44 44 44 60 60 60 60 105 105 105 105 105 105 24 24
 24 24 55 55 55 55 36 233 233 233 14 14 14 14 14 44 44 60 60 60
 60 105 105 105 105 105 105 229 24 24 24 55 55 55 121 233 233 233 233 14
 14 14 14 14 44 60 60 60 60 60 105 105 105 105 229 229 229 124 124 97
 121 121 121 121 121 233 233 233 14 14 14 14 14 60 60 60 60 60 60 16
 105 105 229 229 229 229 124 124 97 121 121 121 121 121 121 101 233 14 14 14
 14 17 60 60 17 60 60 16 16 16 229 229 229 229 229 229 229 121 121 121
 121 121 121 121 101 101 101 101 14 17 17 17 17 17 17 63 63 63 160 229
 229 229 229 229 229 203 203 203 121 121 121 121 121 101 101 101 101 17 17 17
 17 17 17 17 63 63 63 116 116 229 229 229 229 134 134 203 203 203 121 121
 121 101 101 101 101 101 17 17 17 17 17 17 17 63 63 63 116 116 116 116
 207 221 134 134 134 203 203 203 103 103 101 101 101 101 101 17 17 17 17 17
 17 17 63 63 116 116 116 116 116 207 221 134 134 134 134 134 103 103 103 110
 101 101 101 101 77 17 17 17 17 50 50 63 116 116 116 116 116 116 116 221
 134 134 134 134 134 134 110 110 110 110 110 77 77 77 77 132 132 132 50 50
 50 93 116 116 116 116 116 116 116 134 134 134 134 134 157 110 110 110 110 110
 77 77 77 77 132 132 132 50 50 50 93 93 116 116 116 116 116 116 134 134
 134 134 157 157 157 110 110 110 110 81 81 81 81 132 132 50 50 50 50 93
 93 93 116 116 116 116 116 230 230 230 230 230 157 157 157 107 107 81 81 81
 81 81 81 132 50 50 50 50 93 93 93 93 116 116 116 230 230 230 230 230
 208 34 34 107 107 107 81 81 81 81 81 81 81 50 50 50 95 95 95 93
 93 93 192 192 230 230 230 230 230 208 34 34 107 107 107 81 81 81 81 81
 81 81 35 35 95 95 95 95 95 93 39 39 39 230 230 230 230 117 117 34
 34 107 107 107 81 81 81 81 81 81 81 35 95 95 95 95 95 95 39 39
 39 39 230 230 230 230 117 117 117 34 107 107 107 81 81 81 81 78 78 78
 78 95 95 95 95 95 95 39 39 39 39 39 230 230 230 117 117 117 34 107
 107 107 81 78 78 78 78 78 78 78 74 74 156 156 156 39 39 39 39 39
 39 39 217 217 217 217 217 217 217 107 107 78 78 78 78 78 78 78 78 74
 74 74 156 156 39 39 39 39 39 39 142 217 217 217 217 217 217 217 217 78
 78 78 78 78 78 78 78 78 74 74 74 74 156 39 39 39 39 39 39 217
 217 217 217 217 217 217 217 41 163 78 78 78 78 78 78 78 74 74 74 74
 74 74 39 39 83 83 83 1 217 217 217 217 217 217 217 217 41 163 163 163
 78 78 78 78 78 74 74 74 74 74 127 7 83 83 83 83 3 3 3 217
 23 23 23 41 41 41 41 41 205 205 64 64 196 196 196 74 127 127 127 127
 7 83 83 83 83 3 3 3 3 23 23 23 41 41 41 41 41 205 205 205
 196 196 196 196 196 127 127 127 127 127 83 83 83 109 3 3 3 3 23 23
 23 41 41 41 41 41 205 205 205 196 196 196 196 196 127 127 127 127 127 83
 83 83 83 3 3 3 3 23 23 23 41 41 41 41 205 205 205 205 196 196
 196 196 196 127 127 127 127 127 127 83 83 24 24 24 24 24 55 55 55 55
 41 233 233 233 205 205 14 196 196 196 196 44 127 127 127 127 127 105 105 71
 24 24 24 24 24 55 55 55 55 233 233 233 233 233 14 14 14 196 196 196
 60 60 60 127 127 105 105 105 71 71 24 24 24 24 55 55 55 55 233 233
 233 233 233 14 14 14 44 44 44 60 60 60 60 105 105 105 105 105 71 71
 71 24 24 55 55 55 55 233 233 233 233 233 233 14 14 14 60 60 60 60
 60 60 105 105 105 105 105 71 71 71 24 24 55 121 121 121 233 233 233 233
 233 233 14 14 14 60 60 60 60 60 60 105 105 105 105 124 124 124 124 124
 97 121 121 121 121 121 233 233 233 233 233 14 14 60 60 60 60 60 60 60
 105 105 124 124 124 124 124 124 124 97 97 121 121 121 121 121 233 233 233 233
 14 14 60 60 60 60 60 60 60 63 124 124 124 124 124 124 124 124 97 97
 121 121 121 121 121 101 101 101 101 14 17 17 60 60 17 63 63 63 63 124
 124 124 124 124 124 124 203 203 203 121 121 121 121 101 101 101 101 101 101 17
 17 17 17 17 63 63 63 63 63 124 124 124 124 124 124 203 203 203 203 121
 121 103 101 101 101 101 101 101 17 17 17 17 17 63 63 63 63 63 116 116
 207 207 207 203 203 203 203 203 103 103 103 103 101 101 101 101 101 17 17 17
 17 17 63 63 63 63 116 116 116 207 207 207 134 134 203 203 203 103 103 103
 103 101 101 101 77 77 77 17 17 17 50 50 63 63 116 116 116 116 116 207
 207 134 134 134 134 134 103 103 110 110 110 77 77 77 77 77 77 52 52 50
 50 50 50 116 116 116 116 116 116 116 134 134 134 134 134 110 110 110 110 110
 77 77 77 77 77 52 52 52 50 50 50 50 116 116 116 116 116 116 116 134
 230 230 230 230 157 110 110 110 110 77 77 77 77 77 52 52 50 50 50 50
 50 93 116 116 116 116 116 230 230 230 230 230 230 208 34 107 107 107 81 81
 81 81 81 81 52 50 50 50 50 50 93 116 116 116 116 116 230 230 230 230
 230 208 208 34 107 107 107 81 81 81 81 81 81 81 50 50 50 50 95 95
 95 93 116 116 230 230 230 230 230 230 208 208 34 107 107 107 81 81 81 81
 81 81 81 50 50 95 95 95 95 95 95 39 39 230 230 230 230 230 230 208
 208 34 107 107 107 81 81 81 81 81 81 81 50 95 95 95 95 95 95 39
 39 39 39 230 230 230 230 117 117 117 34 107 107 107 81 81 81 78 78 78
 78 78 95 95 95 156 95 39 39 39 39 39 39 230 230 230 117 117 117 34
 107 107 107 81 78 78 78 78 78 78 78 74 74 156 156 156 39 39 39 39
 39 39 230 217 217 217 217 217 217 217 217 107 78 78 78 78 78 78 78 78
 74 74 74 156 156 39 39 39 39 39 39 217 217 217 217 217 217 217 217 217
 204 204 204 78 78 78 78 78 78 74 74 74 156 156 39 39 39 39 39 39
 217 217 217 217 217 217 217 217 41 41 204 204 204 78 78 78 78 74 74 74
 74 74 235 39 39 83 83 83 1 217 217 217 217 217 217 217 41 41 41 41
 204 204 204 78 78 78 74 122 122 74 7 7 7 7 83 109 109 3 3 3
 3 217 217 217 41 41 41 41 41 205 204 204 204 122 122 122 122 122 127 7
 7 7 7 109 109 109 3 3 3 3 3 23 23 41 41 41 41 41 205 205
 205 204 122 122 122 122 127 127 127 7 7 112 109 109 109 3 3 3 3 3
 23 41 41 41 41 41 205 205 205 205 196 196 122 122 122 127 127 127 127 171
 112 112 109 109 3 3 3 3 3 23 41 41 41 41 205 205 205 205 205 196
 196 196 196 196 127 127 127 127 171 112 112 109 109 24 24 24 66 66 55 55
 41 41 233 233 205 205 205 205 196 196 196 196 60 60 127 127 127 171 112 71
 71 71 71 24 24 66 66 55 55 106 233 233 233 233 233 233 205 213 213 213
 213 60 60 60 127 127 105 105 105 71 71 71 71 24 66 66 55 55 233 233
 233 233 233 233 233 233 213 213 213 213 60 60 60 60 105 105 105 105 71 71
 71 71 71 66 66 242 242 233 233 233 233 233 233 233 233 213 213 213 60 60
 60 60 60 105 105 105 105 71 71 71 71 71 66 242 242 242 242 62 233 233
 233 233 233 233 213 213 60 60 60 60 60 60 105 105 105 124 124 124 124 124
 124 97 242 242 242 121 62 62 233 233 233 233 233 213 213 60 60 60 60 60
 60 60 124 124 124 124 124 124 124 124 97 97 242 121 121 121 62 62 233 233
 233 233 233 60 60 60 60 60 60 63 63 124 124 124 124 124 124 124 97 97
 97 97 121 121 121 121 101 101 101 101 101 193 60 60 60 60 63 63 63 63
 63 124 124 124 124 124 124 97 97 97 97 121 121 121 101 101 101 101 101 101
 17 17 17 17 63 63 63 63 63 63 124 124 124 124 124 124 203 203 203 203
 121 103 103 101 101 101 101 101 101 17 17 17 17 63 63 63 63 63 63 12
 12 207 207 207 203 203 203 203 203 103 103 103 103 101 101 101 101 101 17 17
 17 52 52 63 63 63 63 63 12 12 207 207 207 207 203 203 203 203 103 103
 103 103 103 101 77 77 77 77 52 52 52 52 50 63 63 63 116 116 116 207
 207 207 207 134 134 134 134 103 103 103 103 110 77 77 77 77 77 52 52 52
 50 50 50 50 116 116 116 116 116 207 207 207 134 134 134 134 103 110 110 110
 110 77 77 77 77 77 52 52 52 50 50 50 50 116 116 116 116 116 116 207
 230 230 230 230 230 208 110 110 110 110 77 77 77 77 77 52 52 50 50 50
 50 50 93 116 116 116 116 116 230 230 230 230 230 230 208 208 107 107 107 81
 81 77 81 81 52 52 50 50 50 50 50 50 116 116 116 116 230 230 230 230
 230 230 208 208 208 107 107 107 81 81 81 81 81 81 52 50 50 50 50 50
 95 57 57 39 39 230 230 230 230 230 230 208 208 208 107 107 107 81 81 81
 81 81 81 50 50 50 50 95 95 95 95 39 39 39 39 230 230 230 230 230
 208 208 208 107 107 107 81 81 81 81 81 81 81 50 95 95 95 95 95 39
 39 39 39 39 230 230 230 230 230 208 208 208 107 107 107 81 81 81 81 78
 78 78 78 156 156 156 156 156 46 39 39 39 39 39 230 230 230 230 217 217
 217 107 107 107 81 78 78 78 78 78 78 78 74 156 156 156 156 39 39 39
 39 39 39 75 75 217 217 217 217 217 217 217 204 204 204 204 78 78 78 78
 78 74 74 156 156 156 39 39 39 39 46 46 75 75 217 217 217 217 217 217
 217 204 204 204 204 204 78 78 78 78 74 74 235 235 235 39 39 39 39 39
 39 75 75 217 217 217 217 217 217 41 41 204 204 204 204 204 78 78 74 74
 74 235 235 235 7 39 39 39 39 3 3 3 217 217 217 217 217 41 41 41
 41 204 204 204 204 204 122 74 122 122 235 235 7 7 7 112 109 109 3 3
 3 3 217 217 217 41 41 41 41 41 205 204 204 204 122 122 122 122 122 235
 7 7 7 7 112 109 109 3 3 3 3 3 217 41 41 41 41 41 205 205
 205 205 122 122 122 122 122 122 127 7 7 171 112 112 109 109 3 3 3 3
 3 23 41 41 41 41 205 205 205 205 205 205 122 122 122 122 122 127 171 171
 171 112 112 112 109 3 3 3 3 3 3 41 41 41 41 205 205 205 205 205
 205 122 122 122 122 209 127 171 171 171 112 112 112 109 3 3 66 66 66 66
 106 106 41 205 205 205 205 205 205 205 196 196 196 213 60 209 171 171 171 112
 112 71 71 71 71 66 66 66 106 106 106 106 233 233 233 205 205 205 213 213
 213 213 213 60 60 171 171 171 112 71 71 71 71 71 66 66 66 106 106 106
 106 233 233 233 233 233 205 213 213 213 213 60 60 60 60 105 105 105 71 71
 71 71 71 71 66 66 106 106 106 62 233 233 233 233 233 233 213 213 213 213
 60 60 60 60 162 105 5 5 71 71 71 206 206 206 242 242 242 242 62 62
 233 233 233 233 233 213 213 213 60 60 60 60 60 162 5 5 124 124 124 206
 206 206 206 242 242 242 242 62 62 62 233 233 233 233 213 213 213 60 60 60
 60 60 162 124 124 124 124 124 124 206 206 97 97 242 242 242 62 62 62 233
 233 233 233 213 213 60 60 60 60 63 63 63 124 124 124 124 124 124 124 97
 97 97 97 242 30 30 62 62 101 101 233 233 193 193 60 60 60 63 63 63
 63 63 124 124 124 124 124 124 97 97 97 97 30 30 30 30 101 101 101 101
 101 193 193 193 60 63 63 63 63 63 63 12 12 124 124 124 124 203 203 97
 97 30 30 30 30 101 101 101 101 101 193 193 193 193 63 63 63 63 63 63
 12 12 12 207 207 203 203 203 203 203 103 103 103 103 101 101 101 101 77 77
 52 52 52 52 63 63 63 63 12 12 12 12 207 207 207 203 203 203 203 103
 103 103 103 103 101 77 77 77 77 52 52 52 52 63 63 63 63 28 12 12
 12 207 207 207 134 134 134 238 103 103 103 103 220 220 77 77 77 77 52 52
 52 50 50 50 28 28 28 12 12 12 207 207 207 134 134 134 238 103 103 225
 225 220 220 77 77 77 77 52 52 52 50 50 50 50 28 28 116 116 116 116
 207 230 230 230 230 230 79 225 225 225 220 220 77 77 77 52 52 52 52 50
 50 50 50 28 57 57 57 57 57 230 230 230 230 230 230 79 79 225 225 225
 225 131 131 131 52 52 52 50 50 50 50 50 57 57 57 57 57 57 230 230
 230 230 230 208 208 79 79 225 225 131 131 131 131 131 52 52 50 50 50 50
 50 57 57 57 57 57 57 230 230 230 230 230 208 208 79 79 79 225 131 131
 131 131 131 52 52 50 50 50 95 95 95 57 57 57 57 57 230 230 230 230
 230 208 208 79 79 79 79 131 131 131 131 131 131 131 50 156 156 156 156 156
 39 39 39 39 39 230 230 230 230 230 208 79 79 79 79 131 131 131 131 131
 131 78 78 78 156 156 156 156 156 39 39 39 39 39 39 230 230 230 230 217
 217 79 79 79 131 131 204 204 204 78 78 78 78 156 156 156 156 156 39 39
 39 39 39 39 75 75 75 217 217 217 217 217 217 204 204 204 204 204 204 204
 78 78 74 235 235 156 156 39 39 39 39 39 39 75 75 75 217 217 217 217
 217 217 204 204 204 204 204 204 204 78 78 74 235 235 235 235 235 39 39 39
 39 75 75 75 75 217 217 217 217 217 41 204 204 204 204 204 204 204 204 122
 122 235 235 235 235 7 7 39 39 3 3 3 75 75 217 217 217 217 41 41
 41 204 204 204 204 204 204 122 122 122 122 235 235 7 7 7 112 112 109 3
 3 3 3 217 217 217 41 41 41 41 205 204 204 204 204 122 122 122 122 122
 235 7 7 7 7 112 112 109 3 3 3 3 3 217 41 41 41 41 205 205
 205 205 205 122 122 122 122 122 122 122 171 171 171 171 112 112 112 3 3 3
 3 3 3 41 41 41 205 205 205 205 205 205 205 122 122 122 122 122 209 171
 171 171 171 112 112 112 3 3 3 3 66 66 106 41 41 205 205 205 205 205
 205 205 122 122 122 209 209 209 171 171 171 112 112 112 112 167 167 66 66 66
 66 106 106 82 82 205 205 205 205 205 205 122 122 122 209 209 209 171 171 171
 112 112 112 71 167 167 66 66 66 106 106 106 82 82 82 205 205 205 205 213
 213 213 213 213 209 209 209 171 171 112 112 71 71 71 167 66 66 66 106 106
 106 106 82 233 233 233 233 205 213 213 213 213 213 60 60 162 162 5 5 5
 71 71 71 71 206 66 106 106 106 106 62 62 233 233 233 233 233 213 213 213
 213 60 60 162 162 162 5 5 5 5 71 206 206 206 206 128 242 242 242 62
 62 62 233 233 233 233 213 213 213 213 60 60 162 162 162 5 5 5 5 206
 206 206 206 206 128 242 242 242 62 62 62 62 233 233 233 213 213 213 213 60
 60 162 162 162 5 5 5 5 124 206 206 206 206 97 242 242 242 62 62 62
 62 233 233 193 193 193 193 193 193 63 63 63 63 5 5 124 124 124 124 206
 206 97 97 242 242 30 30 62 62 62 101 233 193 193 193 193 193 193 63 63
 63 63 63 124 124 124 124 124 124 97 97 97 97 30 30 30 30 101 101 101
 101 193 193 193 193 193 4 63 63 63 63 63 12 12 12 124 124 124 97 97
 97 30 30 30 30 30 101 101 101 101 193 193 193 193 193 4 63 63 63 63
 63 12 12 12 12 207 203 203 203 238 238 30 30 30 30 101 101 87 87 77
 239 239 52 52 52 4 63 63 63 12 12 12 12 12 207 207 203 238 238 238
 238 238 103 103 220 220 77 77 77 239 239 52 52 52 63 63 63 28 28 12
 12 12 12 207 207 134 238 238 238 238 103 225 225 220 220 220 77 77 239 239
 52 52 52 50 28 28 28 28 28 12 12 12 207 207 134 238 238 238 238 225