# vtk DataFile Version 2.0
Data set from ImportExport Version 6.5.171.b0b162591
ASCII

DATASET RECTILINEAR_GRID
DIMENSIONS 30 30 30
X_COORDINATES 30 float
-1.250000 1.250000 3.750000 6.250000 8.750000 11.250000 13.750000 16.250000 18.750000 21.250000 23.750000 26.250000 28.750000 31.250000 33.750000 36.250000 38.750000 41.250000 43.750000 46.250000 48.750000 
51.250000 53.750000 56.250000 58.750000 61.250000 63.750000 66.250000 68.750000 71.250000 
Y_COORDINATES 30 float
-1.250000 1.250000 3.750000 6.250000 8.750000 11.250000 13.750000 16.250000 18.750000 21.250000 23.750000 26.250000 28.750000 31.250000 33.750000 36.250000 38.750000 41.250000 43.750000 46.250000 48.750000 
51.250000 53.750000 56.250000 58.750000 61.250000 63.750000 66.250000 68.750000 71.250000 
Z_COORDINATES 30 float
-1.250000 1.250000 3.750000 6.250000 8.750000 11.250000 13.750000 16.250000 18.750000 21.250000 23.750000 26.250000 28.750000 31.250000 33.750000 36.250000 38.750000 41.250000 43.750000 46.250000 48.750000 
51.250000 53.750000 56.250000 58.750000 61.250000 63.750000 66.250000 68.750000 71.250000 
CELL_DATA 24389
SCALARS FeatureIds int 1
LOOKUP_TABLE default
 78 78 36 36 36 36 3 3 16 16 16 42 42 42 42 81 81 81 20 20
 134 134 134 134 134 110 110 110 110 78 78 36 36 36 36 156 156 156 16 16
 42 42 42 42 42 81 20 20 20 134 134 134 134 134 134 134 134 134 36 36
 36 36 36 36 156 156 156 156 77 42 42 42 42 42 20 20 20 20 134 134
 134 134 134 134 134 134 134 36 36 36 36 36 36 156 156 156 156 77 77 42
 42 42 42 20 199 199 199 134 134 134 134 134 134 134 134 204 36 36 36 36
 36 36 156 156 156 156 77 77 212 212 212 238 238 199 199 199 199 130 130 134
 134 134 134 204 204 204 204 204 36 36 36 156 156 156 156 77 212 212 212 238
 238 238 142 199 199 199 130 130 130 134 134 204 204 204 204 204 204 183 183 183
 183 156 156 180 180 180 180 238 238 238 238 142 142 199 199 130 130 130 130 109
 204 204 204 204 204 204 183 183 183 183 183 180 180 180 180 180 238 238 238 238
 142 142 142 199 130 130 157 157 109 204 204 204 204 204 204 183 183 183 183 181
 180 180 180 180 180 180 238 238 142 142 142 142 142 157 157 157 157 157 109 204
 204 204 204 204 183 183 183 181 181 181 181 180 180 180 180 238 238 142 142 142
 142 142 157 157 157 157 157 157 204 204 69 69 69 69 69 69 181 181 181 181
 181 180 180 180 238 238 142 142 142 142 157 157 157 157 157 157 157 109 204 69
 69 69 69 69 69 181 181 181 181 181 70 180 180 238 238 142 142 142 157 157
 157 157 157 157 157 157 115 115 115 115 69 69 69 69 181 181 181 181 181 70
 70 70 70 18 142 142 142 157 157 157 157 157 157 157 194 194 115 115 115 115
 115 69 69 53 53 53 53 53 53 53 18 18 18 18 35 9 9 9 9 45
 45 45 157 194 194 115 115 115 115 115 115 115 53 53 53 53 53 53 53 18
 18 18 18 35 9 9 9 9 9 45 45 45 194 194 115 115 115 115 115 115
 115 53 53 53 53 53 53 18 18 18 18 18 33 33 33 9 9 9 9 45
 45 194 194 115 128 128 128 115 115 115 53 53 53 53 53 53 18 18 18 18
 167 167 33 33 33 9 9 175 126 126 126 128 128 128 128 128 128 128 125 125
 125 53 53 53 53 18 18 205 205 167 167 33 33 33 175 175 126 126 126 126
 126 128 128 128 128 128 128 214 214 214 214 214 214 214 214 205 205 205 167 167
 167 33 33 175 175 126 126 126 126 126 128 128 128 128 128 128 214 214 214 214
 214 214 214 62 205 205 205 167 167 167 167 33 175 175 126 126 126 88 88 128
 128 128 128 187 187 187 155 155 155 155 155 62 62 62 62 205 167 167 167 167
 33 175 175 126 126 88 88 88 128 178 178 178 187 187 187 155 155 155 155 155
 62 62 62 62 62 167 167 167 167 167 175 124 126 126 88 88 165 178 178 178
 178 187 187 187 38 38 38 38 38 62 62 62 62 197 197 197 197 197 197 124
 124 124 124 165 165 165 178 178 178 178 187 187 187 38 38 38 38 38 38 207
 207 207 197 197 197 197 197 197 124 124 124 124 165 165 165 165 178 178 187 187
 187 187 38 38 38 38 38 38 207 207 207 197 197 197 197 239 239 124 124 124
 124 165 165 165 165 165 178 187 187 187 187 38 38 38 38 38 38 207 207 81
 81 239 239 239 239 239 124 124 124 165 165 165 165 165 165 165 187 187 187 16
 16 16 16 16 16 16 16 81 81 81 81 239 169 169 169 169 124 124 165 165
 165 165 165 165 165 187 187 187 16 16 16 16 16 16 16 16 81 81 81 81
 169 169 169 169 169 134 134 110 110 110 165 165 165 165 187 187 3 3 3 16
 16 16 16 16 16 42 81 81 81 169 169 169 169 134 134 134 110 110 110 110
 165 36 36 36 36 36 36 85 3 3 16 16 16 42 42 42 81 20 20 20
 20 134 134 134 134 134 134 134 134 134 36 36 36 36 36 36 85 85 77 77
 77 77 42 42 42 20 20 20 20 20 134 134 134 134 134 134 134 134 134 36
 36 36 36 36 36 85 85 77 77 77 77 42 42 42 20 20 20 20 20 134
 134 134 134 134 134 134 134 134 36 36 36 36 36 36 36 77 77 77 77 77
 212 212 212 212 20 20 199 199 134 134 134 134 134 134 134 134 134 36 36 36
 36 36 36 36 77 77 77 77 77 212 212 212 212 238 199 199 199 199 134 134
 134 134 134 134 134 204 204 204 204 36 36 36 36 77 77 77 77 212 212 212
 212 238 238 199 199 199 199 199 130 134 134 134 134 204 204 204 204 204 183 183
 183 183 183 77 147 147 147 212 212 238 238 238 238 199 199 199 199 130 130 109
 109 204 204 204 204 204 204 183 183 183 183 183 180 180 180 180 180 91 238 238
 238 238 142 199 199 199 130 157 109 109 109 204 204 204 204 204 183 183 183 183
 181 180 180 180 180 180 91 238 238 238 142 142 142 142 157 157 157 109 109 109
 204 204 204 204 204 183 183 183 181 181 181 181 180 180 180 180 238 238 238 142
 142 142 157 157 157 157 157 109 109 109 204 69 69 69 69 183 183 181 181 181
 181 181 180 180 180 238 238 238 142 142 142 157 157 157 157 157 157 109 109 204
 115 115 115 69 69 69 181 181 181 181 181 180 180 180 238 238 238 142 142 157
 157 157 157 157 157 157 157 115 115 115 115 115 115 69 69 181 181 181 181 181
 181 70 70 70 35 35 35 35 157 157 157 157 157 157 157 157 115 115 115 115
 115 115 115 115 53 53 53 53 53 53 53 18 18 35 35 35 35 9 9 9
 45 45 45 157 194 115 115 115 115 115 115 115 115 53 53 53 53 53 53 53
 18 18 35 35 35 35 9 9 9 9 45 45 45 194 194 115 115 115 115 115
 115 115 53 53 53 53 53 53 53 18 18 35 35 35 33 33 9 9 9 9
 45 45 194 194 115 128 128 128 115 115 115 53 53 53 53 53 53 53 18 18
 35 35 35 33 33 33 9 9 9 126 126 126 128 128 128 128 128 128 128 125
 125 125 125 125 125 53 53 205 205 205 167 167 33 33 33 33 9 126 126 126
 126 126 128 128 128 128 128 128 214 214 214 214 214 214 214 214 205 205 205 167
 167 167 33 33 33 175 126 126 126 126 126 128 128 128 128 128 187 214 214 214
 214 214 214 214 62 205 205 205 167 167 167 167 33 33 175 126 126 126 126 88
 128 178 178 178 187 187 187 214 214 214 214 214 214 62 62 62 205 167 167 167
 167 33 33 175 126 126 126 126 88 178 178 178 178 187 187 187 38 38 38 38
 38 62 62 62 62 62 167 167 167 167 167 124 124 124 126 126 165 165 178 178
 178 178 187 187 187 38 38 38 38 38 62 62 62 62 197 197 197 197 197 197
 124 124 124 124 124 165 165 178 178 178 178 187 187 187 38 38 38 38 38 38
 62 62 62 197 197 197 197 197 197 124 124 124 124 124 165 165 165 178 178 187
 187 187 187 38 38 38 38 38 38 207 207 207 197 197 197 197 197 197 124 124
 124 124 165 165 165 165 165 178 187 187 187 187 38 38 38 38 38 38 207 207
 81 197 197 197 197 197 197 124 124 124 165 165 165 17 165 165 165 187 187 187
 3 3 3 16 16 16 16 16 81 81 81 81 239 169 169 169 169 124 124 165
 165 165 165 165 165 165 187 187 3 3 3 3 16 16 16 16 16 81 81 81
 81 169 169 169 169 134 134 134 134 165 165 165 165 165 165 187 3 3 3 3
 3 16 16 16 16 16 42 81 81 81 20 169 169 134 134 134 134 134 134 165
 165 165 36 36 36 36 85 85 85 3 3 16 16 16 42 42 20 20 20 20
 20 20 134 134 134 134 134 134 134 134 134 36 36 36 36 36 85 85 85 77
 77 77 77 77 42 20 20 20 20 20 20 134 134 134 134 134 134 134 134 134
 36 36 36 36 36 85 85 85 77 77 77 77 77 212 212 20 20 20 20 20
 134 134 134 134 134 134 134 134 134 36 36 36 36 36 36 85 77 77 77 77
 77 212 212 212 212 20 20 20 20 134 134 134 134 134 134 134 134 134 84 36
 36 36 36 36 85 77 77 77 77 77 212 212 212 212 20 20 199 199 199 134
 134 134 134 134 134 134 84 84 84 84 36 36 36 36 77 77 77 77 212 212
 212 212 212 238 199 199 199 199 199 134 134 134 134 134 84 84 84 84 84 183
 183 183 183 77 77 147 147 147 212 212 212 238 238 238 199 199 199 199 130 109
 109 109 84 84 84 204 204 84 183 183 183 183 183 147 147 147 147 91 91 91
 238 238 238 142 199 199 199 109 109 109 109 109 84 84 84 84 84 183 183 183
 183 181 180 180 180 180 91 91 91 238 238 238 142 142 142 157 109 109 109 109
 109 109 84 84 84 84 183 183 183 181 181 181 181 180 180 180 91 91 238 238
 142 142 142 157 157 157 157 109 109 109 109 84 84 84 84 183 183 183 181 181
 181 181 180 180 180 180 180 238 238 142 142 157 157 157 157 157 157 109 109 109
 84 115 115 74 69 69 181 181 181 181 181 181 181 180 180 180 238 244 244 244
 157 157 157 157 157 157 157 109 109 115 115 74 74 115 115 115 181 181 181 181
 181 181 180 180 180 35 35 35 35 157 157 157 157 157 157 157 109 115 115 115
 74 115 115 115 115 53 53 53 53 53 53 53 53 35 35 35 35 35 35 9
 157 45 45 45 45 45 115 115 115 115 115 115 115 115 53 53 53 53 53 53
 53 53 35 35 35 35 35 35 9 9 9 45 45 45 45 115 115 115 115 115
 115 115 115 53 53 53 53 53 53 53 53 35 35 35 35 35 33 9 9 9
 9 45 45 45 115 115 115 115 115 115 115 125 125 125 125 125 125 53 53 53
 35 35 35 35 33 33 33 9 9 9 45 45 34 34 34 144 144 144 144 144
 125 125 125 125 125 125 125 53 205 205 167 167 167 33 33 33 9 9 9 126
 126 126 34 34 144 144 144 144 214 214 214 214 214 214 214 214 214 205 205 205
 167 167 167 33 33 33 9 126 126 126 126 126 34 144 144 144 187 214 214 214
 214 214 214 214 214 214 62 205 205 167 167 167 167 33 33 175 126 126 126 126
 88 34 178 178 178 187 187 214 214 214 214 214 214 214 62 62 62 205 167 167
 167 167 33 33 124 126 126 126 126 165 178 178 178 178 187 187 187 214 214 214
 214 214 214 62 62 62 5 167 167 167 167 167 124 124 124 124 124 165 165 178
 178 178 178 187 187 187 38 38 38 38 38 38 62 62 62 5 197 197 197 197
 197 124 124 124 124 124 165 165 178 178 178 178 187 187 187 38 38 38 38 38
 38 62 62 62 197 197 197 197 197 197 124 124 124 124 124 165 165 165 178 178
 187 187 187 187 3 38 38 38 38 38 62 62 197 197 197 197 197 197 197 124
 124 124 124 124 165 165 165 165 178 187 187 187 3 3 3 3 38 38 38 38
 185 185 197 197 197 197 197 154 124 124 124 124 165 165 165 165 165 165 187 187
 187 3 3 3 3 16 16 16 16 185 185 185 197 197 197 197 154 134 124 124
 165 165 165 165 165 165 165 187 187 3 3 3 3 3 16 16 16 16 16 185
 20 20 20 20 20 134 134 134 134 134 165 165 165 165 165 165 187 3 3 3
 3 3 3 16 16 16 16 42 81 20 20 20 20 20 134 134 134 134 134 134
 134 165 165 229 36 36 36 85 85 85 3 3 3 3 22 22 20 20 20 20
 20 20 20 134 134 134 134 134 134 134 134 134 36 36 36 36 85 85 85 85
 77 77 77 77 77 20 20 20 20 20 20 20 134 134 134 134 134 134 134 134
 134 36 36 36 36 85 85 85 85 77 77 77 77 77 212 20 20 20 20 20
 20 134 134 134 134 134 134 134 134 134 36 36 36 36 36 85 85 77 77 77
 77 77 212 212 212 20 20 20 20 20 134 134 134 134 134 134 134 134 134 84
 84 36 36 36 36 85 77 77 77 77 77 212 212 212 212 76 76 76 76 134
 134 134 134 134 134 134 134 84 84 84 84 84 36 36 36 77 77 77 77 212
 212 212 212 212 76 76 76 199 199 199 134 134 134 134 134 84 84 84 84 84
 84 84 183 183 77 77 147 147 147 147 212 91 91 76 76 76 76 199 199 109
 109 109 109 84 84 84 84 84 84 84 84 183 183 108 147 147 147 147 91 91
 91 91 238 76 76 76 199 109 109 109 109 109 109 84 84 84 84 84 84 84
 84 108 108 147 147 147 147 91 91 91 238 238 76 76 76 157 157 109 109 109
 109 109 109 84 84 84 84 84 84 226 226 226 181 180 180 180 91 91 91 238
 238 244 244 244 157 157 109 109 109 109 109 109 84 84 84 84 84 84 226 226
 226 181 181 181 180 180 180 91 238 244 244 244 244 157 157 157 157 109 109 109
 109 84 74 74 74 74 74 226 226 226 181 181 181 181 180 180 91 244 244 244
 244 244 157 157 157 157 157 109 109 109 115 74 74 74 74 74 226 226 226 181
 181 181 181 181 181 244 244 244 244 244 244 157 157 157 157 157 157 109 109 115
 74 74 74 115 115 226 226 225 225 225 53 53 53 53 35 35 35 35 35 35
 157 157 157 45 45 45 45 74 74 74 74 115 115 115 115 225 225 225 225 53
 53 53 53 35 35 35 35 35 35 9 9 9 45 45 45 45 115 115 115 115
 115 115 115 225 225 225 225 225 225 53 53 53 35 35 35 35 35 35 9 9
 9 9 45 45 34 34 34 144 144 144 144 144 125 125 125 125 125 125 125 53
 53 35 35 35 35 35 35 33 9 9 9 45 34 34 34 34 144 144 144 144
 144 125 125 125 125 125 125 125 125 125 35 35 35 35 33 33 33 9 9 9
 126 126 34 34 34 144 144 144 144 144 214 214 214 214 214 214 214 214 214 205
 205 167 167 167 33 33 33 9 126 126 126 34 34 34 144 144 144 144 101 101
 214 214 214 214 214 214 214 5 5 5 167 167 167 167 33 33 163 126 126 126
 126 34 34 144 144 144 101 101 101 214 214 214 214 214 214 214 5 5 5 5
 167 167 167 167 167 124 124 126 126 126 54 54 178 178 178 187 101 101 101 214
 214 214 214 214 62 5 5 5 5 5 167 167 167 124 124 124 124 124 165 54
 54 178 178 178 187 187 101 101 38 38 38 38 38 62 5 5 5 5 5 197
 197 124 124 124 124 124 124 165 165 178 178 178 187 187 187 187 38 38 38 38
 38 38 5 5 5 5 5 197 197 197 154 124 124 124 124 124 165 165 165 165
 178 187 187 187 210 210 210 38 38 38 38 185 185 185 185 197 197 197 154 154
 154 124 124 124 124 165 165 165 165 178 187 187 187 3 3 3 3 3 38 22
 22 185 185 185 185 197 197 154 154 154 154 124 124 165 165 165 165 165 165 187
 187 3 3 3 3 3 3 16 22 22 185 185 185 185 185 197 154 154 154 154
 154 124 165 165 165 165 165 165 117 3 3 3 3 3 3 3 16 16 22 22
 185 185 185 20 20 26 26 134 134 134 134 134 165 165 165 165 165 117 3 3
 3 3 3 3 3 16 16 22 22 185 20 20 20 20 20 134 134 134 134 134
 134 134 165 165 229 229 229 36 85 85 85 85 3 3 22 22 22 22 20 20
 20 20 20 20 134 134 134 134 134 134 134 134 203 229 229 36 36 85 85 85
 85 85 77 77 77 77 22 20 20 20 20 20 129 129 134 134 134 134 134 134
 134 134 229 36 36 36 85 85 85 85 77 77 77 77 77 212 20 20 20 20
 20 129 129 129 134 134 134 134 134 134 134 84 36 36 36 85 85 85 77 77
 77 77 77 212 212 212 76 76 76 76 129 129 129 134 134 134 134 134 134 134
 84 84 84 36 36 36 85 77 77 77 77 77 212 212 212 76 76 76 76 76
 129 134 134 134 134 134 134 134 84 84 84 84 84 84 36 85 77 77 77 77
 212 212 212 212 76 76 76 76 76 199 134 134 134 134 134 64 84 84 84 84
 84 84 84 84 108 77 77 147 147 147 147 91 91 76 76 76 76 76 76 134
 109 109 109 109 84 84 84 84 84 84 84 84 84 108 108 147 147 147 147 91
 91 91 91 76 76 76 76 76 109 109 109 109 109 109 84 84 84 84 84 84
 84 84 108 108 108 147 147 147 91 91 91 91 76 76 76 76 76 109 109 109
 109 109 109 109 84 84 84 84 84 84 226 226 226 226 226 147 147 91 91 91
 91 244 244 244 244 86 157 109 109 109 109 109 109 84 84 84 84 84 226 226
 226 226 226 226 181 180 180 91 91 244 244 244 244 244 86 157 157 109 109 109
 109 109 84 74 74 74 74 226 226 226 226 226 226 181 181 180 91 244 244 244
 244 244 244 244 157 157 157 109 109 109 109 115 74 74 74 74 226 226 226 226
 226 225 225 225 225 244 244 244 244 244 244 244 244 157 157 157 157 157 109 109
 115 74 74 74 115 115 226 226 226 225 225 225 225 225 225 244 244 244 244 244
 244 244 157 157 45 45 49 49 74 74 74 74 115 115 115 225 225 225 225 225
 225 225 225 225 35 35 35 35 35 35 35 9 9 45 45 49 49 34 34 144
 144 144 144 148 225 225 225 225 225 225 225 225 225 35 35 35 35 35 35 9
 9 9 9 45 49 34 34 34 144 144 144 144 144 225 225 225 225 225 225 225
 225 225 35 35 35 35 35 35 33 9 9 9 34 34 34 34 34 144 144 144
 144 144 225 225 125 125 125 125 125 225 225 5 35 35 35 35 35 33 9 163
 163 163 34 34 34 34 144 144 144 144 144 214 214 214 214 214 214 214 214 5
 5 5 5 5 167 33 33 192 163 163 163 34 34 34 34 144 144 144 144 101
 101 214 214 214 214 214 214 214 5 5 5 5 5 5 167 192 192 163 163 163
 34 34 34 34 54 144 144 101 101 101 101 214 214 214 214 214 5 5 5 5
 5 5 5 167 192 192 163 163 163 163 54 54 54 54 54 101 101 101 101 101
 101 214 214 214 214 5 5 5 5 5 5 5 5 192 124 124 124 124 124 54
 54 54 54 54 101 101 101 101 101 101 38 38 38 214 5 5 5 5 5 5
 5 5 154 124 124 124 124 124 54 54 54 54 178 217 217 101 101 210 210 210
 210 38 38 5 5 5 5 5 5 5 154 154 154 124 124 124 124 165 54 54
 165 117 187 217 187 210 210 210 210 210 22 22 185 185 185 185 185 185 197 154
 154 154 154 124 124 124 165 165 165 117 117 117 117 210 210 210 210 210 210 22
 22 22 185 185 185 185 185 185 154 154 154 154 154 124 165 165 165 165 165 117
 117 117 3 3 3 3 3 210 22 22 22 185 185 185 185 185 185 154 154 154
 154 154 154 165 165 165 203 203 117 117 117 3 3 3 3 3 3 22 22 22
 22 185 185 185 185 26 26 26 26 26 134 134 134 203 203 203 203 117 117 3
 3 3 3 3 3 3 22 22 22 22 185 185 20 20 20 26 26 26 134 134
 134 134 134 203 203 229 229 229 229 85 85 85 85 94 22 22 22 22 22 22
 20 20 20 20 129 129 134 134 134 134 134 134 203 203 229 229 229 229 85 85
 85 85 85 77 77 22 22 22 22 20 20 20 20 129 129 129 134 134 134 134
 134 134 203 229 229 229 229 85 85 85 85 77 77 77 77 77 212 20 20 20
 20 20 129 129 129 134 134 134 134 134 134 229 229 229 229 36 85 85 85 77
 77 77 77 77 212 212 212 76 76 76 76 129 129 129 134 134 134 134 134 134
 229 84 84 84 84 85 85 85 77 77 77 77 77 212 212 212 76 76 76 76
 76 129 129 134 134 134 134 134 134 84 84 84 84 84 84 85 85 77 77 77
 77 212 212 212 212 76 76 76 76 76 129 129 134 64 64 64 64 64 84 84
 84 84 84 84 108 108 108 108 147 147 147 91 91 91 76 76 76 76 76 76
 76 64 64 64 64 64 64 84 84 84 84 84 84 108 108 108 108 108 147 147
 91 91 91 76 76 76 76 76 76 105 105 64 64 64 64 64 84 84 84 84
 84 84 108 108 108 108 108 147 147 91 91 91 76 76 76 76 76 105 105 105
 105 109 109 109 109 84 84 84 84 84 108 108 108 108 108 108 108 147 91 91
 91 244 244 244 244 244 86 105 105 105 109 109 109 109 84 84 84 84 84 226
 226 226 226 226 226 226 180 180 91 244 244 244 244 244 244 86 86 86 105 109
 109 109 109 109 74 74 74 226 226 226 226 226 226 226 226 181 189 189 244 244
 244 244 244 244 86 86 86 105 109 109 109 109 109 74 74 74 74 226 226 226
 226 226 226 225 225 189 189 244 244 244 244 244 244 86 86 86 49 49 49 49
 49 49 74 74 74 148 148 226 226 226 225 225 225 225 225 189 244 244 244 244
 244 244 86 86 86 49 49 49 49 49 49 144 144 144 148 148 225 225 225 225
 225 225 225 225 225 189 35 35 35 244 244 86 86 86 49 49 49 49 49 144
 144 144 144 148 148 148 225 225 225 225 225 225 225 225 35 35 35 35 35 35
 47 9 9 49 49 49 49 34 144 144 144 144 144 148 225 225 225 225 225 225
 225 225 225 153 153 35 35 35 35 47 47 163 163 163 34 34 34 34 144 144
 144 144 144 23 23 225 225 225 225 225 225 153 153 153 35 46 46 47 192 192
 163 163 163 34 34 34 34 144 144 144 144 144 23 23 23 208 208 208 208 214
 5 5 5 46 46 46 46 192 192 163 163 163 34 34 34 34 144 144 144 144
 101 101 23 23 208 208 208 208 5 5 5 5 5 46 46 46 192 192 163 163
 163 163 34 34 144 54 144 144 101 101 101 101 23 208 208 208 208 5 5 5
 5 5 5 5 5 192 192 163 163 163 163 54 54 54 54 54 217 101 101 101
 101 101 208 208 208 208 5 5 5 5 5 5 5 5 192 192 163 163 163 163
 54 54 54 54 54 217 217 101 101 101 101 208 208 208 208 5 5 5 5 5
 5 5 5 92 92 92 92 92 92 54 54 54 54 117 217 217 217 8 8 210
 210 210 22 5 5 5 5 5 5 5 5 154 154 154 154 92 92 92 54 54
 54 117 117 117 217 8 8 210 210 210 210 22 22 22 185 185 185 185 185 185
 154 154 154 154 92 92 92 165 203 117 117 117 117 117 217 210 210 210 210 210
 22 22 22 185 185 185 185 185 185 154 154 154 154 154 92 203 203 203 203 117
 117 117 117 217 210 210 210 210 22 22 22 22 185 185 185 185 185 185 26 26
 154 154 154 92 203 203 203 203 203 117 117 117 3 3 3 3 210 22 22 22
 22 22 185 185 185 185 26 26 26 26 26 26 134 203 203 203 203 203 117 117
 117 3 3 3 3 3 22 22 22 22 22 231 231 231 20 20 26 26 26 26
 134 134 134 203 203 203 229 229 229 229 229 94 94 94 94 22 22 22 22 22
 22 231 231 20 20 129 129 26 134 134 134 203 203 203 203 229 229 229 229 85
 85 94 94 94 94 22 22 22 22 22 231 20 20 20 129 129 129 134 134 134
 134 203 203 229 229 229 229 229 85 85 85 94 94 94 77 22 22 22 22 20
 20 20 20 129 129 129 129 134 134 134 134 203 229 229 229 229 229 85 85 85
 77 77 77 77 67 67 212 212 76 76 76 76 129 129 129 129 134 134 134 134
 134 229 229 229 229 229 85 85 85 77 77 77 67 67 67 212 212 76 76 76
 76 76 129 129 134 134 134 64 64 64 64 84 84 84 84 84 108 108 108 77
 67 67 67 67 212 212 76 76 76 76 76 76 129 64 64 64 64 64 64 64
 84 84 84 84 84 108 108 108 108 67 67 67 67 91 91 76 76 76 76 76
 76 76 64 64 64 64 64 64 84 84 84 84 84 108 108 108 108 108 108 67
 67 67 91 91 76 76 76 76 76 76 105 105 64 64 64 64 64 64 84 84
 84 84 108 108 108 108 108 108 108 147 91 91 91 76 76 76 76 76 105 105
 105 105 64 64 64 64 84 84 84 84 108 108 108 108 108 108 108 108 108 91
 91 91 244 244 244 244 86 86 105 105 105 105 64 64 64 64 84 84 84 108
 108 108 108 108 108 108 108 108 189 189 244 244 244 244 244 244 86 86 105 105
 105 105 109 109 109 74 74 74 108 108 108 226 226 226 226 226 189 189 189 244
 244 244 244 244 244 86 86 86 105 105 49 49 49 49 74 74 148 148 226 226
 226 226 226 226 225 225 189 189 189 244 244 244 244 244 86 86 86 49 49 49
 49 49 49 74 148 148 148 148 226 226 226 225 225 225 225 189 189 189 244 244
 244 244 244 86 86 86 49 49 49 49 49 49 144 144 148 148 148 148 225 225
 225 225 225 225 189 189 189 244 244 244 244 244 86 86 86 49 49 49 49 49
 49 144 144 148 148 148 148 225 225 225 225 225 225 225 189 189 153 35 35 47
 47 47 47 47 49 49 49 49 49 144 144 144 144 148 148 148 225 225 225 225
 225 225 225 153 153 153 153 47 47 47 47 47 163 163 49 34 34 34 34 144
 144 144 144 148 23 23 23 159 159 159 159 159 153 153 153 153 46 46 47 47
 192 163 163 163 34 34 34 34 144 144 144 144 144 23 23 23 23 208 208 208
 208 153 153 153 46 46 46 47 192 192 163 163 163 34 34 34 34 144 144 144
 144 101 23 23 23 23 208 208 208 5 5 5 5 46 46 46 46 192 192 163
 163 163 163 34 34 34 54 54 144 101 101 101 23 23 23 208 208 208 5 5
 5 5 5 46 46 46 192 192 163 163 163 163 54 54 54 54 54 217 217 101
 101 101 23 23 208 208 208 5 5 5 5 5 5 46 46 192 192 163 163 163
 163 54 54 54 54 217 217 217 217 8 8 8 23 208 208 5 5 5 5 5
 5 5 5 5 192 92 92 92 92 92 54 54 54 54 117 217 217 217 8 8
 8 210 210 22 22 5 5 5 5 5 5 5 154 154 92 92 92 92 92 54
 54 54 117 117 117 217 217 8 8 210 210 210 22 22 22 185 185 185 185 185
 185 154 154 154 92 92 92 92 203 203 117 117 117 117 117 217 210 210 210 210
 22 22 22 22 185 185 185 185 185 185 154 154 154 154 92 92 203 203 203 203
 117 117 117 117 217 210 210 210 210 22 22 22 22 22 185 185 185 185 185 154
 154 154 154 154 203 203 203 203 203 203 117 117 117 117 210 210 210 22 22 22
 22 22 22 231 231 231 231 231 26 26 26 26 26 203 203 203 203 203 203 229
 229 117 117 3 3 3 22 22 22 22 22 22 231 231 231 231 231 26 26 26
 26 26 134 203 203 203 203 229 229 229 229 229 94 94 94 94 22 22 22 22
 22 22 231 231 174 174 174 129 26 134 134 134 203 203 203 203 229 229 229 229
 229 94 94 94 94 94 22 22 22 22 22 231 231 174 174 129 129 129 134 134
 134 203 203 203 229 229 229 229 229 85 94 94 94 94 94 22 67 67 22 22
 76 76 76 129 129 129 129 129 134 134 134 203 203 229 229 229 229 229 85 94
 94 94 94 67 67 67 67 61 61 76 76 76 76 129 129 129 129 134 134 64
 64 203 229 229 229 229 229 85 94 94 94 67 67 67 67 67 61 61 76 76
 76 76 112 112 112 64 64 64 64 64 64 64 84 84 84 84 84 108 108 108
 67 67 67 67 67 61 61 76 76 76 76 112 112 112 64 64 64 64 64 64
 64 84 84 84 84 108 108 108 108 108 67 67 67 67 61 61 76 76 76 76
 112 112 112 64 64 64 64 64 64 64 84 84 84 84 108 108 108 108 108 108
 67 67 67 61 61 76 76 76 76 112 112 105 105 64 64 64 64 64 64 48
 84 84 108 108 108 108 108 108 108 108 67 67 61 61 41 41 41 41 41 105
 105 105 105 64 64 64 64 64 48 84 84 108 108 108 108 108 108 108 108 108
 67 61 41 41 41 41 41 86 86 105 105 105 105 64 64 64 64 48 84 108
 108 108 108 108 108 108 108 108 108 189 189 189 244 244 244 244 86 86 86 105
 105 105 105 64 64 64 48 182 182 182 182 108 108 108 108 108 108 189 189 189
 189 244 244 244 244 86 86 86 86 105 105 49 49 49 49 148 148 148 148 182
 182 108 108 108 108 225 189 189 189 189 189 244 244 244 244 86 86 86 49 49
 49 49 49 49 148 148 148 148 148 148 226 225 225 225 225 189 189 189 189 189
 244 244 244 244 86 86 86 49 49 49 49 49 49 148 148 148 148 148 148 225
 225 225 225 225 189 189 189 189 189 244 244 244 47 47 86 86 49 49 49 49
 49 49 144 148 148 148 148 148 225 225 225 225 225 225 189 189 189 153 153 47
 47 47 47 47 47 39 39 39 39 39 39 144 144 148 148 148 148 23 225 159
 159 159 159 189 153 153 153 153 47 47 47 47 47 163 163 39 39 39 39 34
 144 144 57 57 57 23 23 23 159 159 159 159 159 153 153 153 153 46 47 47
 47 192 163 163 163 39 34 34 34 144 144 57 57 57 23 23 23 23 159 159
 159 159 153 153 153 46 46 46 47 192 192 163 163 163 163 34 1 1 144 144
 57 57 23 23 23 23 23 23 208 208 208 5 5 46 46 46 46 46 192 192
 192 163 163 163 1 1 1 54 54 217 217 101 23 23 23 23 23 208 208 5
 5 5 5 46 46 46 46 192 192 163 163 163 163 1 1 54 54 217 217 217
 217 8 23 23 23 23 208 208 5 5 5 5 5 46 46 46 192 192 92 163
 163 163 54 54 54 54 217 217 217 217 8 8 8 23 23 208 5 5 5 5
 5 5 5 5 63 63 63 92 92 92 92 54 54 54 117 217 217 217 217 8
 8 8 210 22 22 22 5 5 5 5 5 5 5 63 63 63 92 92 92 92
 92 54 54 117 117 217 217 217 8 8 8 210 22 22 22 22 185 185 185 185
 185 185 63 63 63 92 92 92 92 203 203 117 117 117 117 217 217 8 210 210
 210 22 22 22 22 22 185 185 185 174 174 154 154 154 154 92 92 203 203 203
 203 117 117 117 117 217 210 210 210 22 22 22 22 22 22 231 231 231 174 174
 174 154 154 154 92 203 203 203 203 203 203 117 117 117 117 210 210 210 22 22
 22 22 22 22 231 231 231 174 174 174 26 26 26 26 203 203 203 203 203 203
 229 229 117 117 3 3 22 22 22 22 22 22 22 231 231 231 174 174 174 26
 26 26 26 203 203 203 203 203 229 229 229 229 229 94 94 94 94 22 22 22
 22 22 22 231 174 174 174 174 174 44 44 134 203 203 203 203 203 229 229 229
 229 229 94 94 94 94 94 22 22 22 22 22 231 174 174 174 174 129 129 134
 134 134 203 203 203 229 229 229 229 229 229 94 94 94 94 94 67 67 67 61
 61 61 76 76 129 129 129 129 129 134 134 203 203 203 229 229 229 229 229 229
 94 94 94 94 67 67 67 67 61 61 61 76 76 112 112 112 112 112 134 134
 64 203 203 229 229 229 229 229 229 94 94 67 67 67 67 67 67 61 61 61
 61 112 112 112 112 112 112 64 64 64 64 64 64 48 229 229 229 108 108 108
 67 67 67 67 67 67 61 61 61 61 112 112 112 112 112 112 64 64 64 64
 64 64 48 48 84 84 108 108 108 108 108 67 67 67 67 61 61 61 198 198
 112 112 112 112 112 64 64 64 64 64 48 48 48 48 108 108 108 108 108 108
 67 67 67 67 61 61 61 198 198 198 112 112 105 105 64 64 64 64 64 48
 48 48 48 108 108 108 108 108 108 108 67 67 67 61 61 41 41 41 41 41
 41 105 105 105 64 64 64 64 48 48 48 108 108 108 108 108 108 108 108 108
 67 67 61 41 41 41 41 41 41 65 105 105 105 105 64 64 64 48 48 48
 182 182 182 182 108 108 108 108 108 189 189 189 189 41 41 41 41 41 86 65
 105 105 105 105 64 64 48 48 182 182 182 182 182 182 108 108 108 189 189 189
 189 189 189 41 41 244 86 86 86 86 105 49 49 49 49 49 148 182 182 182
 182 182 182 108 108 108 189 189 189 189 189 189 244 244 244 86 86 86 86 86
 49 49 49 49 49 148 148 148 148 148 182 182 108 225 225 189 189 189 189 189
 189 189 244 244 86 86 86 86 49 49 49 49 49 49 148 148 148 148 148 148
 225 225 225 225 189 189 189 189 189 189 189 244 47 47 47 47 86 39 39 39
 39 39 39 148 148 148 148 148 148 148 43 43 43 159 189 189 189 189 189 189
 47 47 47 47 47 47 39 39 39 39 39 39 144 57 57 57 57 57 23 43
 43 43 159 159 189 153 153 153 153 47 47 47 47 47 47 39 39 39 39 39
 39 144 57 57 57 57 57 23 23 43 43 159 159 159 153 153 153 153 47 47
 47 47 47 163 163 163 39 39 1 1 144 57 57 57 57 23 23 23 23 43
 43 159 159 153 153 153 46 46 47 47 47 192 163 163 163 163 1 1 1 1
 57 57 57 57 23 23 23 23 23 43 208 208 5 5 46 46 46 46 47 192
 192 192 163 163 163 1 1 1 54 217 57 217 101 23 23 23 23 23 208 208
 5 5 5 5 46 46 46 46 192 192 192 163 163 163 1 1 1 54 217 217
 217 217 8 23 23 23 23 23 23 5 5 5 5 5 46 46 46 63 63 92
 92 163 163 1 1 54 54 217 217 217 217 8 8 8 23 23 23 106 106 5
 5 5 5 5 46 63 63 63 92 92 92 92 92 54 54 117 217 217 217 8
 8 8 8 8 22 22 22 22 5 5 5 5 5 63 63 63 63 63 92 92
 92 92 54 117 117 117 217 217 217 8 8 8 210 22 22 22 22 22 185 185
 185 174 63 63 63 63 63 92 92 92 203 203 117 117 117 117 217 217 8 8
 8 22 22 22 22 22 22 231 231 174 174 174 63 63 63 63 92 92 203 203
 203 203 117 117 117 117 217 8 210 210 22 22 22 22 22 22 231 231 174 174
 174 174 44 44 44 92 203 203 203 203 203 203 117 117 117 117 8 210 22 22
 22 22 22 22 22 231 231 174 174 174 174 44 44 44 44 203 203 203 203 203
 203 229 229 117 117 3 22 22 22 22 22 22 22 22 231 231 174 174 174 174
 44 44 44 203 203 203 203 203 203 229 229 229 229 229 94 94 94 22 22 22
 22 22 22 22 174 174 174 174 174 44 44 44 44 203 203 203 203 203 229 229
 229 229 229 94 94 94 94 94 22 22 22 22 22 174 174 174 174 174 44 44
 44 44 203 203 203 203 229 229 229 229 229 229 94 94 94 94 94 67 67 67
 61 61 61 61 112 112 112 112 112 44 173 173 203 203 203 229 229 229 229 229
 83 83 83 83 67 67 67 67 67 61 61 61 61 112 112 112 112 112 173 173
 173 64 64 203 229 24 24 24 24 83 83 83 83 67 67 67 67 67 61 61
 61 61 112 112 112 112 112 173 173 173 64 64 64 48 48 48 24 24 83 83
 83 67 67 67 67 67 67 61 61 61 61 112 112 112 112 112 173 173 173 64
 64 64 48 48 48 48 7 108 108 108 108 67 67 67 67 67 61 61 61 198
 198 112 112 112 112 173 173 64 64 64 48 48 48 48 48 48 108 108 108 195
 195 67 67 67 67 61 61 61 198 198 198 138 138 138 105 64 64 64 64 48
 48 48 48 48 48 195 195 195 195 195 195 67 67 67 61 61 41 41 41 41
 138 138 105 105 105 64 64 64 48 48 48 48 48 182 182 195 195 195 195 195
 108 67 67 61 41 41 41 41 41 41 65 65 105 105 105 64 64 48 48 48
 48 182 182 182 182 195 195 195 195 195 189 189 189 189 41 41 41 41 41 65
 65 65 105 105 105 64 48 48 48 182 182 182 182 182 182 195 195 195 189 189
 189 189 189 189 41 41 41 65 65 65 65 65 49 49 49 49 48 48 182 182
 182 182 182 182 182 195 189 189 189 189 189 189 189 6 6 6 65 65 65 65
 65 49 49 49 49 49 57 57 182 182 182 182 182 182 225 189 189 189 189 189
 189 189 6 6 6 6 65 65 65 39 39 39 39 39 39 57 57 148 148 148
 182 182 182 225 225 189 189 189 189 189 189 6 6 6 47 47 47 65 39 39
 39 39 39 39 57 57 57 57 57 57 57 43 43 43 43 189 189 189 189 189
 47 47 47 47 47 47 47 39 39 39 39 39 39 57 57 57 57 57 57 57
 43 43 43 43 43 189 189 189 189 47 47 47 47 47 47 47 39 39 39 39
 39 39 57 57 57 57 57 57 23 43 43 43 43 43 43 153 153 153 47 47
 47 47 47 47 120 39 39 39 39 1 1 57 57 57 57 57 57 23 23 43
 43 43 43 43 153 153 153 46 47 47 47 47 47 120 163 163 39 1 1 1