# vtk DataFile Version 2.0
Data set from ImportExport Version 6.5.171.b0b162591
ASCII

DATASET RECTILINEAR_GRID
DIMENSIONS 30 30 30
X_COORDINATES 30 float
-1.250000 1.250000 3.750000 6.250000 8.750000 11.250000 13.750000 16.250000 18.750000 21.250000 23.750000 26.250000 28.750000 31.250000 33.750000 36.250000 38.750000 41.250000 43.750000 46.250000 48.750000 
51.250000 53.750000 56.250000 58.750000 61.250000 63.750000 66.250000 68.750000 71.250000 
Y_COORDINATES 30 float
-1.250000 1.250000 3.750000 6.250000 8.750000 11.250000 13.750000 16.250000 18.750000 21.250000 23.750000 26.250000 28.750000 31.250000 33.750000 36.250000 38.750000 41.250000 43.750000 46.250000 48.750000 
51.250000 53.750000 56.250000 58.750000 61.250000 63.750000 66.250000 68.750000 71.250000 
Z_COORDINATES 30 float
-1.250000 1.250000 3.750000 6.250000 8.750000 11.250000 13.750000 16.250000 18.750000 21.250000 23.750000 26.250000 28.750000 31.250000 33.750000 36.250000 38.750000 41.250000 43.750000 46.250000 48.750000 
51.250000 53.750000 56.250000 58.750000 61.250000 63.750000 66.250000 68.750000 71.250000 
CELL_DATA 24389
SCALARS FeatureIds int 1
LOOKUP_TABLE default
 43 43 43 126 126 126 126 126 126 204 204 204 240 240 240 240 240 224 224 224
 224 40 40 40 40 40 40 40 40 43 43 43 126 126 126 126 126 126 204 204
 204 240 240 240 240 240 240 224 224 224 40 40 40 40 40 40 40 40 43 43
 43 43 48 126 126 126 204 204 204 204 240 240 240 240 240 240 224 224 26 26
 26 40 40 40 40 40 40 43 43 43 43 48 48 204 204 204 204 204 204 240
 240 240 240 240 240 224 26 26 26 26 26 26 40 40 40 43 43 43 43 172
 48 48 48 204 204 204 204 204 240 240 240 70 70 70 70 26 26 26 26 26
 26 26 26 26 43 43 43 43 172 48 48 48 48 204 204 204 204 240 240 70
 70 70 70 70 26 26 26 26 26 26 26 26 43 43 43 43 43 172 48 48
 48 205 205 205 205 205 240 240 70 70 70 70 84 84 26 26 26 26 26 26
 26 43 43 43 43 43 43 48 48 48 205 205 205 205 205 205 240 70 70 70
 84 84 84 84 26 26 26 26 26 26 43 43 43 43 161 161 161 48 48 205
 205 205 205 205 205 205 70 70 70 84 84 84 84 84 26 26 26 26 26 150
 43 229 229 161 161 161 161 48 205 205 205 119 205 205 205 84 84 84 84 84
 84 84 84 84 26 168 168 168 150 150 229 229 161 161 161 161 161 205 205 205
 119 205 205 38 38 84 84 84 84 84 84 84 84 168 168 168 42 42 42 42
 35 35 35 35 35 35 205 205 205 119 205 38 38 38 38 84 84 84 84 84
 84 84 168 168 168 42 42 42 42 42 35 35 35 35 35 35 205 227 227 38
 38 38 38 38 38 84 84 84 84 84 84 168 42 42 42 42 42 42 42 35
 35 35 35 149 149 149 227 227 227 38 38 38 38 38 183 183 183 183 183 183
 168 42 42 42 42 42 42 223 223 223 223 149 149 149 149 227 227 227 38 38
 38 38 183 183 183 183 183 183 183 183 42 42 42 42 42 223 223 223 223 223
 149 149 149 149 149 227 227 227 38 38 38 183 183 183 183 183 183 183 183 42
 42 42 42 42 223 223 223 223 223 149 149 149 149 149 149 149 149 216 216 216
 216 216 183 183 183 183 183 183 42 42 42 42 223 223 223 223 223 223 149 149
 149 149 149 149 149 149 216 216 216 216 216 216 183 183 183 183 190 190 42 42
 223 223 223 223 223 223 223 149 149 149 149 149 149 149 149 216 216 216 216 216
 216 183 190 190 190 190 190 190 223 223 223 223 223 223 223 223 149 149 149 149
 62 62 62 62 216 216 216 216 216 216 190 190 190 190 190 190 190 223 223 223
 223 223 91 91 91 91 149 149 62 62 62 62 62 62 171 171 171 171 171 190
 190 190 190 190 190 80 80 80 223 80 91 91 91 91 91 91 109 62 62 62
 62 62 62 171 171 171 171 171 226 190 190 190 190 190 80 80 80 80 80 91
 91 91 91 91 91 109 62 62 62 62 62 236 236 171 171 171 226 226 190 190
 190 190 190 80 80 80 80 80 91 91 91 91 91 91 109 62 62 62 62 2
 236 236 236 236 236 157 157 190 190 190 190 190 80 80 80 80 80 91 91 91
 91 91 91 91 243 243 243 243 236 236 236 236 236 236 87 87 87 190 190 190
 80 80 80 80 80 80 91 91 91 91 91 145 145 243 243 243 243 236 236 236
 236 236 236 87 87 87 87 190 190 80 80 80 80 80 80 91 91 91 91 145
 145 145 145 243 243 243 236 236 236 236 236 236 87 87 87 87 87 190 80 80
 80 80 80 143 91 91 91 91 145 145 145 145 145 243 243 2 236 236 236 236
 236 87 87 87 87 87 40 40 40 143 143 143 143 91 91 91 145 145 145 145
 145 145 145 145 2 236 236 236 236 236 87 87 87 87 40 40 40 40 40 143
 143 43 43 68 68 126 126 126 126 126 204 204 204 240 240 240 240 240 224 224
 224 224 224 40 40 40 40 40 40 143 43 43 68 68 219 126 126 126 126 204
 204 204 240 240 240 240 240 224 224 224 224 224 40 40 40 40 40 40 40 43
 43 68 68 219 219 126 126 204 204 204 204 240 240 240 240 240 224 224 224 224
 224 40 40 40 40 40 40 40 43 43 43 68 219 219 219 204 204 204 204 204
 240 240 240 240 240 240 224 224 224 26 26 26 40 40 40 40 43 43 43 43
 43 48 48 48 204 204 204 204 204 240 240 240 240 70 70 84 224 26 26 26
 26 26 26 26 43 43 43 43 43 43 48 48 48 48 204 204 204 204 240 240
 240 240 70 70 84 84 26 26 26 26 26 26 26 43 43 43 43 43 43 48
 48 48 205 205 205 205 205 240 240 70 70 70 84 84 84 153 153 26 26 26
 26 26 43 43 43 43 43 43 48 48 48 205 205 205 205 205 205 240 70 70
 70 84 84 84 84 153 153 26 26 26 26 43 43 43 43 161 161 161 48 48
 205 205 205 205 205 205 205 70 70 84 84 84 84 84 84 153 26 26 168 168
 150 43 229 229 161 161 161 161 48 205 205 205 205 205 205 205 84 84 84 84
 84 84 84 84 84 168 168 168 168 150 150 150 150 161 161 161 161 161 205 205
 205 205 205 205 38 38 84 84 84 84 84 84 84 84 168 168 168 168 150 150
 150 150 35 35 35 35 35 205 205 205 205 205 38 38 38 38 84 84 84 84
 84 84 84 168 168 168 168 150 150 42 42 35 35 35 35 232 232 227 227 227
 38 38 38 38 38 38 84 84 84 84 84 168 168 168 168 42 42 42 42 42
 223 35 35 232 232 232 227 227 227 227 38 38 38 38 38 183 183 183 183 183
 168 168 168 42 42 42 42 42 223 223 223 223 232 232 232 227 227 227 227 38
 38 38 38 38 183 183 183 183 183 183 168 168 42 42 42 42 223 223 223 223
 223 232 232 232 227 227 227 227 227 38 38 38 38 183 183 183 183 183 183 183
 42 42 42 42 42 223 223 223 223 223 149 149 149 149 227 227 227 227 38 38
 216 216 183 183 183 183 183 183 183 42 42 42 42 223 223 1 223 223 223 149
 149 149 149 149 227 227 227 216 216 216 216 183 183 183 183 183 183 11 11 42
 42 223 223 223 223 223 223 223 149 149 149 149 149 149 149 60 156 156 156 156
 156 156 156 183 190 190 11 11 11 223 223 223 223 223 223 223 91 149 149 149
 149 149 149 60 60 60 156 156 156 156 156 156 190 190 190 190 11 11 223 223
 223 223 223 223 91 91 91 149 149 62 62 62 60 60 60 156 156 156 156 156
 190 190 190 190 190 190 80 80 80 80 80 91 91 91 91 91 91 109 62 62
 62 62 60 60 236 156 156 156 156 226 190 190 190 190 190 80 80 80 80 80
 91 91 91 91 91 91 109 62 62 62 62 2 2 236 236 171 171 226 226 190
 190 190 190 80 80 80 80 80 80 91 91 91 91 91 91 91 62 62 62 2
 2 2 236 236 236 236 157 157 190 190 190 190 80 80 80 80 80 80 91 91
 91 91 91 91 91 243 243 243 2 2 2 236 236 236 236 87 87 87 190 190
 190 80 80 80 80 80 80 91 91 91 91 91 145 145 145 145 243 2 2 2
 236 236 236 236 87 87 87 87 29 80 80 80 80 80 80 80 91 91 91 91
 145 145 145 145 145 243 2 2 2 236 236 236 236 87 87 87 87 29 29 143
 143 143 143 143 143 91 91 91 91 145 145 145 145 145 145 2 2 2 236 236
 236 236 236 87 87 87 40 40 40 143 143 143 143 143 143 91 91 145 145 145
 145 145 145 145 2 2 2 236 236 236 236 236 224 224 224 40 40 40 40 143
 143 143 43 68 68 68 126 126 126 126 126 204 204 204 240 240 240 240 224 224
 224 224 224 224 40 40 40 40 197 143 143 43 68 68 68 219 219 126 126 126
 204 204 204 240 240 240 240 240 224 224 224 224 224 224 197 197 40 197 197 143
 43 68 68 68 219 219 219 126 204 204 204 204 240 240 240 240 240 224 224 224
 224 224 197 197 197 40 40 40 40 43 43 68 68 219 219 219 204 204 204 204
 204 240 240 240 240 240 224 224 224 224 224 197 197 197 40 40 40 43 43 43
 43 68 219 219 219 204 204 204 204 204 240 240 240 240 240 240 224 224 224 26
 26 26 26 26 40 43 43 43 43 43 43 48 48 48 48 204 204 204 204 240
 240 240 240 240 84 84 153 153 153 153 153 26 26 26 43 43 43 43 43 43
 48 48 48 205 205 205 205 205 240 240 240 240 84 84 84 84 153 153 153 153
 26 26 26 43 43 43 43 43 43 48 48 48 205 205 205 205 205 205 240 240
 70 84 84 84 84 153 153 153 153 26 26 43 43 43 43 43 43 43 48 48
 48 205 205 205 205 205 205 205 240 84 84 84 84 84 84 153 153 153 153 168
 168 150 43 150 150 161 161 161 48 48 205 205 205 205 205 205 205 38 84 84
 84 84 84 84 84 153 168 168 168 168 150 150 150 150 161 161 161 161 48 205
 205 205 205 205 205 38 38 38 84 84 84 84 84 84 153 168 168 168 168 150
 150 150 150 35 35 35 35 232 19 19 19 19 19 38 38 38 38 38 84 84
 84 84 84 168 168 168 168 168 150 150 150 150 35 35 35 232 232 232 232 227
 227 227 38 38 38 38 38 38 84 84 84 84 168 168 168 168 168 42 42 42
 42 223 223 232 232 232 232 232 227 227 227 38 38 38 38 38 183 183 183 183
 183 168 168 168 168 42 42 42 42 223 223 223 232 232 232 232 227 227 227 227
 227 38 38 38 38 183 183 183 183 183 183 168 168 42 42 42 42 223 223 223
 223 223 232 232 232 227 227 227 227 227 38 38 38 38 183 183 183 183 183 183
 64 66 42 42 42 42 223 223 223 223 223 232 232 232 232 227 227 227 227 38
 38 38 183 183 183 183 183 183 183 64 66 66 42 42 223 223 223 223 223 223
 149 149 149 149 227 227 227 227 156 156 156 156 156 183 183 183 183 11 11 11
 11 42 223 223 223 223 223 223 223 149 149 149 149 149 227 227 60 156 156 156
 156 156 156 156 183 11 11 11 11 11 11 223 223 223 223 223 223 223 149 149
 149 149 149 60 60 60 60 156 156 156 156 156 156 156 11 11 11 11 11 11
 223 223 223 223 91 91 91 91 149 149 149 60 60 60 60 60 156 156 156 156
 156 156 190 190 11 11 11 11 80 80 223 80 91 91 91 91 91 91 109 60
 60 60 60 60 60 156 156 156 156 156 156 190 190 190 190 88 80 80 80 80
 80 91 91 91 91 91 91 91 60 60 60 60 60 2 238 238 238 156 156 156
 190 190 190 88 80 80 80 80 80 80 91 91 91 91 91 91 91 159 159 2
 2 2 2 238 238 238 238 238 112 190 88 88 88 88 80 80 80 80 80 91
 91 91 91 91 91 91 159 159 159 2 2 2 238 238 238 238 238 112 112 88
 88 88 80 80 80 80 80 80 91 91 91 91 91 145 145 145 159 159 2 2
 2 238 238 238 238 238 112 112 29 29 29 80 80 80 80 80 143 91 91 91
 91 145 145 145 145 145 159 2 2 2 238 238 238 238 238 112 112 29 29 29
 143 143 143 143 143 143 143 91 91 91 145 145 145 145 145 145 2 2 2 238
 238 238 238 238 224 224 29 29 29 143 143 143 143 143 143 143 91 91 145 145
 145 145 145 145 145 2 2 2 238 238 238 238 224 224 224 224 40 40 40 40
 143 143 143 81 81 81 81 81 126 126 126 126 204 204 204 240 240 240 46 224
 224 224 224 224 224 224 197 197 197 197 143 143 68 68 68 68 219 219 219 126
 204 204 204 204 240 240 240 46 224 224 224 224 224 224 224 197 197 197 197 197
 143 68 68 68 68 219 219 219 219 204 204 204 204 240 240 240 46 46 224 224
 224 224 224 224 197 197 197 197 197 197 43 68 68 68 219 219 219 219 204 204
 204 204 240 240 240 46 46 224 224 224 224 224 224 197 197 197 197 197 197 43
 43 68 68 219 219 219 219 204 204 204 204 240 240 240 46 46 224 224 224 224
 153 153 197 197 197 197 43 43 43 43 43 68 219 219 48 204 204 204 204 204
 240 240 240 46 46 46 84 153 153 153 153 153 153 26 197 43 43 43 43 43
 43 48 48 48 205 205 205 205 205 240 240 240 46 46 84 84 153 153 153 153
 153 153 26 43 43 43 43 43 43 43 48 48 48 205 205 205 205 205 205 240
 78 78 84 84 84 153 153 153 153 153 153 168 118 118 43 150 43 43 167 48
 48 48 205 205 205 205 205 205 205 78 84 84 84 84 84 153 153 153 153 168
 168 118 118 118 150 150 167 167 167 48 48 205 205 205 205 205 113 113 78 84
 84 84 84 84 84 153 153 168 168 168 168 150 150 150 150 167 167 167 19 19
 19 19 19 19 19 19 38 38 38 84 84 84 84 84 84 168 168 168 168 168
 150 150 150 150 150 167 35 19 19 19 19 19 19 19 38 38 38 38 38 84
 84 84 84 84 168 168 168 168 168 150 150 150 150 150 35 232 232 232 19 19
 19 19 19 38 38 38 38 38 38 84 84 84 84 168 168 168 168 168 150 150
 10 10 10 223 232 232 232 232 232 227 227 227 38 38 38 38 38 38 183 183
 183 183 168 168 168 168 10 10 10 42 223 223 223 232 232 232 232 232 227 227
 227 227 38 38 38 38 183 183 183 183 183 64 64 66 66 10 10 10 223 223
 223 223 232 232 232 232 227 227 227 227 227 38 38 38 38 183 183 183 183 183
 64 64 66 66 66 10 10 223 223 223 223 223 232 232 232 232 227 227 227 227
 38 38 38 156 183 183 183 183 183 11 64 66 66 66 66 223 223 223 223 223
 223 232 232 232 232 227 227 227 227 38 156 156 156 156 156 183 183 11 11 11
 11 11 66 223 223 223 223 223 223 223 149 149 149 149 149 227 60 60 60 156
 156 156 156 156 156 156 11 11 11 11 11 11 223 223 223 223 223 223 91 149
 149 149 149 60 60 60 60 60 156 156 156 156 156 156 156 11 11 11 11 11
 11 223 223 223 223 91 91 91 91 149 149 60 60 60 60 60 60 60 156 156
 156 156 156 156 11 11 11 11 11 11 80 223 80 91 91 91 91 91 91 60
 60 60 60 60 60 60 60 156 156 156 156 156 88 88 88 88 88 88 80 80
 80 80 91 91 91 91 91 91 60 60 60 60 60 60 60 238 238 238 238 156
 156 88 88 88 88 88 88 80 80 80 80 91 91 91 91 91 91 159 159 159
 159 2 2 2 238 238 238 238 112 112 112 88 88 88 88 88 80 80 80 80
 91 91 91 91 91 91 159 159 159 159 2 2 2 2 238 238 238 112 112 112
 88 88 88 88 88 80 80 80 91 91 91 91 91 91 160 159 159 159 159 2
 2 2 238 238 238 238 112 112 112 29 29 29 29 29 143 143 143 143 91 91
 91 91 145 160 145 159 159 159 2 2 2 238 238 238 238 112 112 112 29 29
 29 29 143 143 143 143 143 143 91 91 164 145 145 145 145 159 159 2 2 2
 238 238 238 238 112 112 112 29 29 29 29 143 143 143 143 143 143 81 81 164
 164 145 145 145 145 159 2 2 2 238 238 238 238 224 224 224 224 29 29 197
 197 143 143 143 81 81 81 81 81 81 126 126 160 95 204 204 111 111 46 46
 224 224 224 224 224 224 224 197 197 197 197 143 143 81 81 81 81 81 219 219
 219 204 204 204 204 240 111 46 46 46 224 224 224 224 224 224 197 197 197 197
 197 143 68 68 68 68 219 219 219 219 204 204 204 204 240 46 46 46 46 224
 224 224 224 224 224 197 197 197 197 197 197 68 68 68 68 219 219 219 219 204
 204 204 204 240 46 46 46 46 46 224 224 224 224 99 197 197 197 197 197 197
 43 68 68 68 219 219 219 219 204 204 204 204 240 46 46 46 46 46 224 224
 224 153 153 93 197 197 197 197 43 43 43 68 68 219 219 219 219 204 204 204
 204 240 240 46 46 46 46 153 153 153 153 153 153 93 93 197 43 43 43 43
 43 68 48 48 48 205 205 205 205 205 240 240 46 46 46 78 153 153 153 153
 153 153 153 153 118 118 43 118 167 167 167 48 48 48 205 205 205 205 205 205
 78 78 78 78 78 84 153 153 153 153 153 153 168 118 118 118 118 167 167 167
 167 48 27 205 205 205 205 113 113 78 78 78 78 84 84 84 153 153 153 153
 153 168 118 118 118 118 167 167 167 167 19 19 19 19 19 19 19 113 113 78
 78 78 78 84 84 153 153 153 168 168 168 118 118 118 150 167 167 167 167 19
 19 19 19 19 19 19 113 113 78 78 78 84 84 84 84 153 153 168 168 168
 168 150 150 150 167 167 167 167 19 19 19 19 19 19 19 19 38 38 38 78
 78 78 84 84 84 168 168 168 168 168 150 150 150 150 167 167 19 19 19 19
 19 19 19 19 19 38 38 38 38 38 78 84 84 168 168 168 168 168 168 150
 150 10 10 10 232 232 232 232 232 232 19 227 227 38 38 38 38 38 38 183
 183 183 64 64 64 168 168 10 10 10 10 10 223 232 232 232 232 232 232 227
 227 227 227 38 38 38 185 185 183 183 183 64 64 64 66 66 66 10 10 223
 223 223 223 232 232 232 232 232 227 227 227 227 185 185 185 185 185 183 183 183
 64 64 64 66 66 66 66 10 223 223 223 223 232 232 232 232 232 227 227 227
 227 185 185 185 185 185 183 183 183 64 64 64 66 66 66 66 66 223 223 223
 223 223 232 232 232 232 227 227 227 227 185 185 156 156 156 156 156 11 11 11
 11 11 66 66 66 223 223 223 223 223 241 241 149 149 149 227 227 60 60 60
 156 156 156 156 156 156 156 11 11 11 11 11 66 66 223 223 223 223 241 241
 241 241 195 60 60 60 60 60 60 60 156 156 156 156 156 156 11 11 11 11
 11 11 11 223 223 223 91 91 241 241 241 60 60 60 60 60 60 60 60 156
 156 156 156 156 156 11 11 11 11 11 11 208 208 208 91 91 91 91 91 241
 60 60 60 60 60 60 60 60 156 156 156 156 156 88 88 88 88 88 88 208
 208 208 208 91 91 91 91 91 91 60 60 60 60 60 60 60 60 238 238 156
 112 112 88 88 88 88 88 88 208 208 208 80 91 91 91 91 91 159 159 159
 159 159 60 2 2 238 238 238 238 112 112 112 88 88 88 88 88 208 208 208
 125 91 91 91 91 91 159 159 159 159 159 159 2 2 2 238 238 238 112 112
 112 88 88 88 88 88 208 208 208 143 91 91 91 91 164 160 159 159 159 159
 159 2 2 2 238 238 238 112 112 112 29 29 29 29 29 208 208 143 143 143
 125 164 164 164 160 160 159 159 159 159 2 2 238 238 238 238 112 112 112 29
 29 29 29 29 143 143 143 143 143 125 164 164 164 160 160 160 95 95 159 2
 2 238 238 238 238 112 112 112 29 29 29 29 143 143 143 143 143 143 81 81
 164 164 160 160 160 95 95 159 2 2 238 238 238 238 224 224 224 224 29 29
 197 197 143 143 143 81 81 81 81 81 164 164 160 160 95 95 111 111 111 46
 46 224 224 224 224 224 224 224 197 197 197 197 143 143 81 81 81 81 81 81
 219 219 160 95 95 111 111 111 46 46 46 224 224 224 224 224 224 197 197 197
 197 197 143 81 81 81 81 81 219 219 219 204 204 204 111 46 46 46 46 46
 46 224 224 224 224 99 99 197 197 197 197 197 68 68 68 68 219 219 219 219
 204 204 204 204 46 46 46 46 46 46 224 224 224 224 99 99 99 197 197 197
 197 43 68 68 68 219 219 219 219 204 204 204 204 46 46 46 46 46 46 224
 224 224 93 93 93 93 93 93 197 43 43 43 68 68 219 219 219 219 204 204
 204 204 46 46 46 46 46 46 78 153 153 153 93 93 93 93 93 118 43 167
 167 167 167 219 219 219 124 205 205 205 113 113 78 78 78 78 78 78 153 153
 153 93 93 93 93 118 118 118 167 167 167 167 167 219 27 27 205 205 113 113
 113 78 78 78 78 78 78 153 153 153 153 153 93 118 118 118 118 167 167 167
 167 167 27 27 27 19 19 113 113 113 78 78 78 78 78 78 78 182 153 153
 153 118 118 118 118 118 167 167 167 167 167 167 27 19 19 19 19 113 113 113
 78 78 78 78 78 78 78 153 153 168 168 118 118 118 118 167 167 167 167 167
 167 19 19 19 19 19 113 113 113 78 78 78 78 78 78 78 153 168 168 168
 168 118 118 118 167 167 167 167 167 89 19 19 19 19 19 19 113 113 78 78
 78 78 78 78 78 168 168 168 168 168 168 150 150 150 167 167 167 89 89 19
 19 19 19 19 19 19 38 38 78 78 78 78 78 78 36 36 36 168 168 168
 150 150 10 10 167 167 89 89 232 232 19 19 19 19 185 185 185 185 185 185
 185 78 64 64 64 36 66 66 66 10 10 10 245 245 163 163 232 232 232 232
 227 227 227 185 185 185 185 185 185 185 71 64 64 64 64 66 66 66 66 10
 245 223 223 163 163 163 232 232 232 227 227 227 185 185 185 185 185 185 185 71
 71 64 64 64 66 66 66 66 66 223 223 223 163 163 163 232 232 227 227 227
 227 185 185 185 185 185 185 185 71 71 71 64 64 64 66 66 66 66 223 223
 223 241 241 241 241 195 195 195 195 195 185 185 185 185 185 185 156 71 71 71
 71 11 11 66 66 66 66 223 223 44 241 241 241 241 195 195 195 195 195 60
 60 49 49 156 156 156 71 71 11 11 11 11 11 11 11 223 223 44 44 241
 241 241 241 195 195 195 195 60 60 60 60 156 156 156 156 156 54 11 11 11
 11 11 11 11 11 208 44 44 241 241 241 241 195 195 60 60 60 60 60 60
 156 156 156 156 156 54 11 11 11 11 11 11 208 208 208 208 91 241 241 241
 241 60 60 60 60 60 60 60 60 60 156 156 156 156 54 88 88 88 88 88
 208 208 208 208 208 91 91 91 241 241 60 60 60 60 60 60 60 60 60 238
 156 112 112 88 88 88 88 88 88 208 208 208 208 125 125 91 91 91 159 159
 159 159 60 60 60 2 238 238 238 238 112 112 112 88 88 88 88 88 208 208
 208 125 125 125 125 91 164 159 159 159 159 159 159 2 2 2 238 238 112 112
 112 112 88 88 88 88 88 208 208 208 125 125 125 125 164 164 164 159 159 159
 159 159 2 2 2 238 238 112 112 112 112 29 29 29 29 29 208 208 208 125
 125 125 164 164 164 160 160 159 159 159 159 2 2 238 238 238 112 112 112 112
 29 29 29 29 29 143 143 143 125 125 125 164 164 164 160 160 160 95 95 159
 2 2 238 238 238 238 112 112 112 29 29 29 29 29 143 143 143 143 81 81
 81 164 164 160 160 160 95 95 159 2 2 238 238 238 224 224 224 224 29 29
 29 197 197 143 143 143 81 81 81 81 164 164 164 160 160 95 111 111 111 111
 111 111 111 224 224 224 224 224 99 99 197 197 197 143 143 81 81 81 81 81
 164 164 160 160 95 111 111 111 111 111 111 46 224 224 224 224 224 99 99 99
 197 197 197 143 81 81 81 81 81 219 219 219 188 188 111 111 111 111 46 46
 46 46 224 224 224 99 99 99 99 99 197 197 197 81 81 81 81 81 219 219
 219 188 188 188 111 111 111 46 46 46 46 224 224 224 99 99 99 99 99 99
 99 99 43 68 68 68 219 219 219 124 124 188 188 188 111 46 46 46 46 46
 224 224 93 93 93 93 93 93 93 93 93 167 167 167 68 219 219 124 124 124
 124 188 188 188 46 46 46 78 78 78 182 93 93 93 93 93 93 93 93 118
 167 167 167 167 167 219 124 124 124 124 113 113 113 14 78 78 78 78 78 182
 182 182 93 93 93 93 93 118 118 167 167 167 167 167 128 27 27 27 113 113
 113 113 78 78 78 78 78 78 182 182 182 182 93 93 93 118 118 118 167 167
 167 167 167 27 27 27 27 113 113 113 113 113 78 78 78 78 78 78 182 182
 230 93 93 118 118 118 118 167 167 167 167 167 167 27 27 27 19 113 113 113
 113 78 78 78 78 78 78 78 182 182 168 168 118 118 118 118 167 167 167 167
 167 27 27 27 19 19 19 113 113 113 78 78 78 78 78 78 78 182 182 168
 168 118 30 30 30 167 167 167 167 167 89 89 19 19 19 19 113 113 113 78
 78 78 78 78 78 78 36 36 36 36 30 30 30 30 30 167 167 167 89 89
 89 89 19 19 19 19 113 185 78 78 78 78 78 78 78 36 36 36 36 30
 30 30 30 30 245 245 89 89 89 89 89 89 19 19 19 185 185 185 185 185
 185 78 78 36 36 36 36 36 66 66 30 30 245 245 245 163 163 163 89 89
 89 227 227 227 185 185 185 185 185 185 185 71 64 64 36 36 66 66 66 66
 30 245 245 245 163 163 163 163 89 89 227 227 227 185 185 185 185 185 185 185
 71 71 71 64 64 66 66 66 66 66 245 245 245 163 163 163 163 232 227 227
 227 227 185 185 185 185 185 185 185 71 71 71 71 64 66 66 66 66 66 245
 44 44 241 241 241 241 195 195 195 195 195 185 185 49 49 49 185 185 71 71
 71 71 71 11 66 66 66 66 44 44 44 241 241 241 241 195 195 195 195 195
 195 49 49 49 49 49 156 71 71 71 11 11 11 11 66 66 66 44 44 44
 241 241 241 241 195 195 195 195 195 60 60 49 49 49 156 156 54 54 54 11
 11 11 11 11 11 208 44 44 44 241 241 241 241 195 195 195 60 60 60 60
 60 49 156 156 156 54 54 54 11 11 11 11 11 208 208 208 44 44 241 241
 241 241 195 195 60 60 60 60 60 60 60 217 152 152 54 246 246 88 88 88
 88 208 208 208 208 208 125 241 241 241 241 60 60 60 60 60 60 60 60 152
 152 152 112 246 246 246 88 88 88 88 208 208 208 208 125 125 125 164 164 159
 159 159 159 60 60 60 60 238 238 152 152 112 112 246 246 88 88 88 88 208
 208 208 125 125 125 125 164 164 164 159 159 159 159 159 159 2 2 238 238 112
 112 112 112 246 88 88 88 88 208 208 208 125 125 125 125 164 164 164 159 159
 159 159 159 159 2 2 238 238 112 112 112 112 29 29 29 29 29 208 208 125
 125 125 125 164 164 164 164 160 159 159 159 159 159 2 238 238 238 112 112 112
 112 29 29 29 29 29 143 143 125 125 125 125 164 164 164 164 160 160 95 95
 159 111 111 111 238 238 112 112 112 112 29 29 29 29 29 143 143 143 125 125
 164 164 164 164 164 160 160 95 95 111 111 111 111 111 238 224 224 224 224 29
 29 29 29 29 143 143 143 103 103 103 103 164 164 164 164 160 111 111 111 111
 111 111 111 111 220 220 220 220 220 99 99 99 99 197 143 237 103 103 103 103
 103 164 164 164 160 111 111 111 111 111 111 111 111 220 220 220 220 99 99 99
 99 99 99 99 237 103 103 103 103 103 103 103 124 188 188 188 111 111 111 111
 111 111 220 220 220 220 99 99 99 99 99 99 99 237 103 103 103 103 103 103
 124 124 188 188 188 188 111 111 111 46 46 46 220 220 137 99 99 99 99 99
 99 99 99 167 167 103 103 103 124 124 124 124 188 188 188 188 111 111 46 46
 78 78 137 137 137 93 93 93 93 93 93 93 167 167 167 167 124 124 124 124
 124 124 188 188 188 14 111 46 78 78 78 137 137 137 93 93 93 93 93 93
 167 167 167 167 167 128 128 124 124 124 124 113 188 14 14 78 78 78 78 78
 78 182 182 182 93 93 93 93 118 167 167 167 167 167 128 128 27 27 27 113
 113 113 113 14 78 78 78 78 78 78 182 182 182 182 93 93 118 118 167 167
 167 167 167 128 128 27 27 27 113 113 113 113 14 78 78 78 78 78 78 182
 182 182 182 93 118 118 118 167 167 167 167 167 128 128 27 27 27 113 113 113
 113 113 78 78 78 78 78 78 78 182 182 182 118 118 118 118 167 167 167 167
 167 128 128 27 27 27 19 113 113 113 113 78 78 78 78 78 78 78 182 182
 36 30 30 30 30 30 167 167 167 167 89 89 89 89 19 19 19 113 113 113
 78 78 78 78 78 78 78 218 218 36 36 30 30 30 30 30 167 167 167 89
 89 89 89 89 19 19 19 113 185 185 78 78 78 78 78 78 218 36 36 36
 30 30 30 30 245 245 245 89 89 89 89 89 89 89 19 19 185 185 185 185
 185 185 78 78 218 218 36 36 36 36 30 30 30 245 245 245 163 163 163 89
 89 89 89 18 185 185 185 185 185 185 185 185 185 218 218 36 36 36 66 66
 66 30 245 245 245 163 163 163 163 89 89 89 18 185 185 185 185 185 185 185
 185 71 71 71 71 218 218 66 66 66 245 245 245 245 163 163 163 163 89 89
 195 195 185 185 185 185 185 185 185 185 71 71 71 71 71 66 66 66 66 245
 245 44 44 44 241 241 241 195 195 195 195 195 185 49 49 49 49 49 185 71
 71 71 71 71 11 66 66 66 245 44 44 44 44 241 241 241 195 195 195 195
 195 173 49 49 49 49 49 49 71 71 71 71 11 11 11 11 11 177 44 44
 44 44 241 241 241 195 195 195 195 195 173 173 49 49 49 49 54 54 54 54
 54 11 11 11 11 11 208 44 44 44 44 241 241 241 195 195 195 195 173 173
 173 173 217 217 152 54 54 54 54 54 11 11 11 11 208 208 44 44 44 44
 241 241 241 195 195 195 173 173 173 173 173 217 217 152 152 246 246 54 54 11
 11 11 208 208 208 208 44 44 44 241 241 241 195 173 173 173 173 173 173 173
 152 152 152 152 246 246 246 246 88 88 88 208 208 208 125 125 125 125 164 164
 164 159 159 159 173 173 173 173 173 152 152 152 152 152 246 246 246 88 88 88
 208 208 208 125 125 125 125 164 164 164 159 159 159 159 159 173 173 152 152 152
 152 152 112 246 246 246 88 88 88 208 208 125 125 125 125 125 164 164 164 164
 159 159 159 159 159 2 152 152 152 152 112 112 112 246 246 29 29 29 208 208
 125 125 125 125 164 164 164 164 164 159 159 159 159 159 111 111 152 152 112 112
 112 112 29 29 29 29 29 143 125 125 125 125 125 164 164 164 164 164 160 159
 159 159 111 111 111 111 111 112 112 112 112 29 29 29 29 29 143 125 125 125
 125 164 164 164 164 164 164 160 95 111 111 111 111 111 111 111 111 220 220 220
 220 29 29 29 29 143 143 143 103 103 103 103 103 164 164 164 164 111 111 111
 111 111 111 111 111 220 220 220 220 220 220 99 247 247 247 237 237 103 103 103
 103 103 103 164 164 188 188 111 111 111 111 111 111 111 220 220 220 220 220 99
 99 247 247 247 237 237 103 103 103 103 103 103 103 124 188 188 188 188 111 111
 111 111 111 220 220 220 220 220 247 247 247 247 247 247 237 103 103 103 103 103
 103 124 124 124 188 188 188 188 111 111 111 111 220 220 220 137 92 247 247 247
 247 247 247 237 25 25 103 103 103 124 124 124 124 188 188 188 188 111 111 111
 111 220 220 137 137 137 92 93 93 93 93 93 237 25 25 25 25 124 124 124
 124 124 124 188 188 188 14 14 14 78 78 78 137 137 137 92 93 93 93 93
 93 167 167 167 167 167 128 128 124 124 124 124 188 14 14 14 14 14 78 78
 78 137 92 92 92 93 93 93 93 118 167 167 167 167 167 128 128 128 27 27
 113 113 113 14 14 14 78 78 78 78 78 182 182 182 93 93 93 20 118 167
 167 167 167 167 128 128 128 27 27 113 113 113 14 14 14 16 78 78 78 78
 182 182 182 182 93 20 20 20 167 167 167 167 167 128 128 128 27 27 113 113
 113 113 16 16 16 78 78 78 78 78 182 182 182 118 20 20 20 167 167 167
 167 167 128 128 128 27 27 113 113 113 113 16 16 16 78 78 78 78 78 182
 218 218 218 30 30 30 30 167 167 167 167 128 128 89 89 89 89 113 113 113
 16 78 78 78 78 78 78 78 218 218 218 218 30 30 30 30 30 167 167 167
 89 89 89 89 89 89 19 113 113 185 185 185 78 78 78 78 218 218 218 218
 218 218 30 30 30 245 245 245 245 89 89 89 89 89 89 18 18 18 185 185
 185 185 185 78 78 218 218 218 218 218 218 30 30 30 245 245 245 245 89 89
 89 89 89 89 18 18 18 185 185 185 185 185 185 218 218 218 218 218 218 218
 218 30 245 245 245 245 245 163 163 163 89 89 89 18 18 18 185 185 185 185
 185 185 71 71 71 218 218 218 218 66 245 245 245 245 245 245 163 163 163 89
 89 18 18 18 18 185 185 185 185 185 185 71 71 71 71 71 218 218 66 245
 245 245 245 44 44 44 241 241 195 195 195 195 195 18 185 49 49 49 49 49
 71 71 71 71 71 218 218 66 177 245 44 44 44 44 44 241 241 195 195 195
 195 195 173 173 49 49 49 49 71 71 71 71 71 71 11 11 11 177 177 44
 44 44 44 44 241 241 195 195 195 195 173 173 173 173 49 49 49 54 54 54
 54 54 54 11 11 11 177 177 44 44 44 44 44 241 241 195 195 195 173 173
 173 173 217 217 217 217 152 54 54 54 54 54 11 11 86 86 86 44 44 44
 44 44 241 241 195 173 173 173 173 173 173 217 217 217 152 152 152 246 54 54
 54 11 11 86 86 86 125 44 44 44 44 241 241 173 173 173 173 173 173 173
 217 217 152 152 152 152 246 246 246 88 88 88 86 208 208 125 125 125 125 44
 164 164 173 173 173 173 173 173 173 173 152 152 152 152 152 246 246 246 88 88
 88 208 208 208 125 125 125 125 164 164 164 159 159 159 173 173 173 173 173 152
 152 152 152 152 246 246 246 88 88 88 208 208 125 125 125 125 125 164 164 164
 164 159 159 159 159 173 173 152 152 152 152 152 152 246 246 246 29 29 29 208
 125 125 125 125 125 164 164 164 164 164 159 159 159 159 111 111 111 152 152 152
 112 112 112 246 29 29 29 29 125 125 125 125 125 125 164 164 164 164 164 164
 159 111 111 111 111 111 111 111 111 220 220 220 220 29 29 29 29 125 125 125
 125 125 103 164 164 164 164 164 164 111 111 111 111 111 111 111 111 111 220 220
 220 220 220 29 29 29 143 125 125 237 237 103 103 103 103 164 164 164 111 111
 111 111 111 111 111 111 220 220 220 220 220 220 247 247 247 247 237 237 237 103
 103 103 103 103 164 164 188 188 111 111 111 111 111 111 111 220 220 220 220 220
 247 247 247 247 247 237 237 237 103 103 103 103 103 103 124 188 188 188 188 111
 111 111 111 111 220 220 220 220 220 247 247 247 247 247 237 237 237 237 103 103
 103 103 124 124 124 188 188 188 188 111 111 111 111 220 220 220 137 92 247 247
 247 247 247 237 237 25 25 25 103 103 124 124 124 124 188 188 188 188 111 111
 111 111 220 220 137 137 92 92 247 247 247 247 247 25 25 25 25 25 124 124
 124 124 124 124 188 188 188 14 14 14 78 78 137 137 137 92 137 137 93 93
 93 25 25 167 25 25 128 128 124 124 124 124 124 188 14 14 14 14 14 78
 78 78 137 92 92 137 137 93 93 93 20 167 167 167 167 128 128 128 128 124
 124 124 113 14 14 14 14 14 78 78 78 78 92 92 137 137 93 93 20 20
 167 167 167 167 128 128 128 128 128 27 113 113 14 14 14 16 16 16 78 78
 78 78 182 182 182 93 20 20 20 20 167 167 167 128 128 128 128 128 27 113
 113 113 14 16 16 16 16 78 78 78 78 182 182 218 194 20 20 20 20 167
 167 167 128 128 128 128 128 27 113 113 113 113 16 16 16 16 78 78 78 78
 218 218 218 194 194 20 20 20 167 167 167 128 128 128 89 89 89 89 113 113
 113 16 16 16 78 78 78 78 78 218 218 218 218 194 194 30 30 30 167 167
 128 89 89 89 89 213 89 18 18 18 16 16 185 78 78 78 78 218 218 218
 218 218 218 194 30 30 245 245 245 245 89 89 89 213 213 213 18 18 18 185