# vtk DataFile Version 2.0
Data set from ImportExport Version 6.5.171.b0b162591
ASCII

DATASET RECTILINEAR_GRID
DIMENSIONS 30 30 30
X_COORDINATES 30 float
-1.250000 1.250000 3.750000 6.250000 8.750000 11.250000 13.750000 16.250000 18.750000 21.250000 23.750000 26.250000 28.750000 31.250000 33.750000 36.250000 38.750000 41.250000 43.750000 46.250000 48.750000 
51.250000 53.750000 56.250000 58.750000 61.250000 63.750000 66.250000 68.750000 71.250000 
Y_COORDINATES 30 float
-1.250000 1.250000 3.750000 6.250000 8.750000 11.250000 13.750000 16.250000 18.750000 21.250000 23.750000 26.250000 28.750000 31.250000 33.750000 36.250000 38.750000 41.250000 43.750000 46.250000 48.750000 
51.250000 53.750000 56.250000 58.750000 61.250000 63.750000 66.250000 68.750000 71.250000 
Z_COORDINATES 30 float
-1.250000 1.250000 3.750000 6.250000 8.750000 11.250000 13.750000 16.250000 18.750000 21.250000 23.750000 26.250000 28.750000 31.250000 33.750000 36.250000 38.750000 41.250000 43.750000 46.250000 48.750000 
51.250000 53.750000 56.250000 58.750000 61.250000 63.750000 66.250000 68.750000 71.250000 
CELL_DATA 24389
SCALARS FeatureIds int 1
LOOKUP_TABLE default
 95 95 95 95 195 195 195 240 240 240 240 240 240 201 201 201 228 228 228 37
 37 37 37 37 37 37 95 95 95 95 95 95 95 95 195 195 240 240 240 240
 137 201 201 201 201 201 228 228 37 37 37 37 37 37 37 37 95 95 95 95
 95 95 95 95 95 98 98 98 137 137 201 201 137 137 137 228 228 37 37 37
 37 37 37 37 37 95 95 95 95 95 95 95 95 95 98 98 98 137 137 201
 201 137 137 137 137 137 37 37 37 37 37 37 37 37 95 95 95 95 95 95
 95 95 167 167 98 98 167 201 201 201 137 137 137 137 183 37 37 37 37 37
 37 37 37 95 95 15 15 15 95 95 167 167 167 167 167 167 201 201 201 201
 137 137 137 183 68 68 68 68 68 37 37 37 37 95 15 15 15 15 185 185
 167 167 167 167 167 201 201 201 201 137 206 206 183 68 68 68 68 68 68 68
 37 15 15 15 15 15 15 185 185 185 185 167 167 167 201 201 206 206 206 206
 206 183 68 68 68 68 68 68 68 68 15 15 15 15 15 185 185 185 185 185
 167 167 167 206 206 206 206 206 206 206 206 183 68 68 68 68 68 68 197 197
 15 15 15 15 185 185 185 185 185 185 167 215 215 215 206 206 206 206 206 206
 166 166 68 68 68 68 227 197 197 15 15 15 15 185 185 185 185 185 185 185
 204 215 215 215 206 206 206 206 206 74 74 68 68 68 227 227 227 197 197 90
 90 185 185 185 185 185 185 185 185 204 204 215 215 206 206 206 206 74 74 74
 108 108 108 227 227 227 90 90 90 90 185 185 185 185 185 185 122 122 122 204
 112 112 206 206 206 74 74 74 74 108 108 108 108 227 90 90 90 90 90 217
 217 217 217 217 217 122 122 122 112 112 112 112 112 62 74 74 74 74 108 108
 108 108 108 90 90 90 90 90 217 217 217 217 217 217 122 122 122 112 112 112
 112 112 62 62 74 74 74 108 108 108 108 90 90 90 90 90 90 217 217 217
 217 217 217 122 122 122 112 112 112 112 112 62 62 62 74 74 45 108 108 108
 90 90 90 90 90 90 188 188 188 217 217 217 122 122 122 112 112 112 112 112
 62 62 62 45 45 45 45 108 108 90 90 90 90 31 31 188 188 188 188 188
 188 122 122 122 118 112 112 112 112 62 62 62 45 45 45 45 45 45 31 31
 31 31 31 31 222 188 188 188 188 188 19 121 121 121 121 112 112 111 111 111
 111 45 45 45 45 45 45 31 31 31 31 31 222 222 222 222 188 188 19 19
 121 121 121 121 121 111 111 111 111 111 111 45 45 45 45 31 31 31 31 31
 31 222 222 222 222 222 222 19 121 121 121 121 121 121 226 111 111 111 111 111
 111 45 136 136 136 31 31 31 31 202 222 222 222 222 222 222 121 121 121 121
 121 121 121 226 111 111 111 111 111 136 136 136 136 136 136 202 202 202 202 222
 222 222 222 222 222 19 19 121 121 121 121 121 226 111 111 111 111 111 136 136
 136 136 136 136 202 202 202 38 38 38 38 38 222 19 19 19 121 121 121 121
 121 226 111 111 111 111 111 136 136 136 136 136 136 136 202 202 38 38 38 38
 38 38 19 240 240 240 240 159 159 121 226 111 111 111 111 111 136 136 136 136
 136 136 136 202 202 38 38 38 38 195 195 195 240 240 240 240 159 159 159 159
 111 111 211 211 211 136 136 136 136 136 136 136 202 202 195 195 195 195 195 195
 195 240 240 240 240 240 240 240 240 111 211 211 211 211 211 136 136 136 136 136
 136 95 95 95 195 195 195 195 195 195 240 240 240 240 240 240 240 240 240 211
 211 211 211 211 211 136 136 136 136 95 95 95 95 95 195 195 195 195 195 240
 240 240 240 240 240 240 240 240 211 211 211 211 211 211 211 136 136 95 95 95
 95 95 95 95 95 195 195 195 240 240 240 240 240 201 201 201 201 228 228 228
 228 37 37 37 37 37 37 37 95 95 95 95 95 95 95 195 195 240 240 240
 240 137 201 201 201 201 228 228 228 228 37 37 37 37 37 37 37 95 95 95
 95 95 95 95 95 24 24 24 24 24 137 137 201 201 137 228 228 228 37 37
 37 37 37 37 37 37 95 95 95 95 95 95 95 95 24 24 24 24 24 137
 137 137 137 137 137 228 228 37 37 37 37 37 37 37 37 95 95 95 95 95
 95 95 95 167 167 167 167 167 137 201 201 137 137 137 137 183 37 37 37 37
 37 37 37 37 95 95 15 15 15 15 95 167 167 167 167 167 167 201 201 201
 201 137 137 183 183 183 68 68 68 68 37 37 37 37 95 15 15 15 15 185
 185 167 167 167 167 167 201 201 201 201 137 206 183 183 183 68 68 68 68 68
 68 68 15 15 15 15 15 15 185 185 185 167 167 167 167 167 201 206 206 206
 206 183 183 183 183 68 68 68 68 68 68 68 15 15 15 15 185 185 185 185
 185 167 167 167 167 206 206 206 206 206 206 183 183 183 68 68 68 68 68 68
 197 15 13 15 15 185 185 185 185 185 167 167 204 215 215 206 206 206 206 206
 166 166 166 68 68 68 68 227 227 197 15 13 13 13 185 185 185 185 185 185
 204 204 204 206 206 206 206 206 206 166 166 166 166 68 68 227 227 227 197 90
 13 13 13 185 185 185 185 185 185 185 204 204 204 206 206 206 206 206 166 166
 166 166 108 108 227 227 227 90 90 90 90 13 185 185 185 185 185 208 204 204
 204 204 97 97 97 206 74 74 74 74 74 108 108 227 227 227 90 90 90 90
 217 217 217 217 217 217 217 118 118 118 97 97 97 97 62 74 74 74 74 74
 108 108 108 90 90 90 90 90 90 217 217 217 217 217 217 122 118 118 118 118
 97 97 97 62 62 74 74 74 74 108 108 108 90 90 90 90 90 90 217 217
 217 217 217 217 122 118 118 118 118 97 97 97 62 62 62 74 74 45 45 108
 108 90 90 90 90 186 33 33 217 217 217 217 217 122 118 118 118 118 97 97
 97 62 62 62 45 45 45 45 45 108 186 186 186 186 31 33 33 33 217 217
 217 217 217 118 118 118 118 118 97 62 62 62 62 45 45 45 45 45 45 186
 186 186 186 31 31 33 33 33 188 188 217 19 19 118 118 118 118 111 111 111
 111 111 45 45 45 45 45 45 31 31 31 31 31 222 222 222 222 222 19 19
 19 19 19 121 121 121 111 111 111 111 111 111 45 45 45 45 31 31 31 31
 31 31 222 222 222 222 222 19 19 19 19 19 121 121 121 111 111 111 111 111
 111 111 136 136 136 136 31 31 31 31 202 222 222 222 222 222 19 19 19 19
 19 121 121 121 111 111 111 111 111 111 111 136 136 136 136 202 202 202 202 202
 222 222 222 222 222 19 19 19 19 19 121 121 121 111 111 111 111 111 111 136
 136 136 136 136 136 202 202 202 202 38 38 222 222 222 19 19 19 19 19 121
 121 121 111 111 111 111 111 111 136 136 136 136 136 136 136 202 202 38 38 38
 38 38 195 19 19 19 19 240 240 159 121 111 111 111 111 111 111 136 136 136
 136 136 136 136 202 202 38 38 195 195 195 195 195 240 240 240 240 240 240 240
 190 190 111 111 111 30 136 136 136 136 136 136 136 202 202 195 195 195 195 195
 195 195 240 240 240 240 240 240 240 240 190 190 211 211 211 211 136 136 136 136
 136 136 95 95 95 195 195 195 195 195 195 240 240 240 240 240 240 240 240 190
 228 211 211 211 211 211 136 136 136 136 95 95 95 95 95 195 195 195 195 195
 240 240 240 240 240 240 240 240 228 228 228 211 211 211 211 136 136 136 95 95
 95 95 95 95 95 95 195 195 195 240 240 240 240 240 201 201 201 228 228 228
 228 228 37 37 37 37 37 37 37 95 95 95 95 95 95 95 195 195 24 24
 24 24 137 201 201 201 228 228 228 228 228 37 37 37 37 37 37 37 95 95
 95 95 95 95 95 95 24 24 24 24 24 137 137 201 201 201 228 228 228 228
 37 37 37 37 37 37 37 95 95 95 95 95 95 95 95 24 24 24 24 24
 137 137 201 201 137 228 228 228 37 37 37 37 37 37 37 37 95 95 95 95
 95 95 95 95 167 167 167 24 24 137 137 201 201 137 137 228 183 183 37 37
 37 37 37 37 37 95 95 15 15 15 15 15 167 167 167 167 167 167 167 201
 201 201 137 137 183 183 183 183 68 68 68 37 37 37 37 95 15 15 15 15
 15 185 167 167 167 167 167 167 201 201 201 137 183 183 183 183 183 68 68 68
 68 68 37 15 15 15 15 15 15 185 185 185 167 167 167 167 167 201 206 206
 206 206 183 183 183 183 68 68 68 68 68 68 15 15 13 15 15 185 185 185
 185 185 167 167 167 167 206 206 206 206 206 183 183 183 183 183 68 68 68 68
 68 13 13 13 13 13 185 185 185 185 185 167 167 204 204 204 206 206 206 206
 206 166 166 166 166 68 68 68 68 227 13 13 13 13 13 185 185 185 185 185
 208 204 204 204 204 206 206 206 206 166 166 166 166 166 68 68 227 227 227 227
 13 13 13 13 185 185 185 185 208 208 208 204 204 204 206 206 206 206 166 166
 166 166 166 108 108 227 227 227 90 90 90 13 13 185 185 185 208 208 208 204
 204 204 204 97 97 97 97 80 80 166 166 166 108 108 227 227 227 90 90 90
 90 217 217 217 217 217 217 208 118 118 118 97 97 97 97 97 80 80 74 74
 74 108 108 108 90 90 90 90 90 90 217 217 217 217 217 217 217 118 118 118
 118 97 97 97 62 62 80 80 74 74 108 108 108 90 90 90 90 186 33 33
 217 217 217 217 217 118 118 118 118 118 97 97 97 62 62 62 80 74 45 45
 108 108 186 186 186 186 186 33 33 33 217 217 217 217 217 118 118 118 118 97
 97 97 62 62 62 45 45 45 45 45 186 186 186 186 186 186 33 33 33 33
 217 217 217 118 118 118 118 118 118 97 97 62 62 62 45 45 45 45 45 45
 186 186 186 186 31 33 33 33 33 33 217 19 19 19 19 118 118 118 97 111
 111 111 45 45 45 45 45 45 186 186 31 31 31 31 31 33 33 33 19 19
 19 19 19 19 19 19 118 111 111 111 111 111 111 45 45 45 136 31 31 31
 31 31 31 222 222 222 222 19 19 19 19 19 19 19 19 19 111 111 111 111
 111 111 89 89 89 136 136 31 31 31 31 202 222 222 222 222 19 19 19 19
 19 19 19 19 19 111 111 111 111 111 111 89 89 136 136 136 136 202 202 202
 202 222 222 222 222 19 19 19 19 19 19 19 19 19 111 111 111 111 111 111
 89 89 136 136 136 136 202 202 202 202 38 222 222 222 19 19 19 19 19 19
 19 19 19 111 111 111 111 111 111 136 136 136 136 136 136 136 202 202 224 38
 38 38 222 19 19 19 19 19 19 19 19 190 190 190 111 111 111 30 136 136
 136 136 136 136 136 136 202 195 195 195 195 195 195 19 19 19 240 240 240 240
 190 190 190 190 190 30 30 136 136 136 136 136 136 136 136 95 195 195 195 195
 195 195 195 240 240 240 240 240 240 240 190 190 190 190 30 30 30 136 136 136
 136 136 136 95 95 95 195 195 195 195 195 195 240 240 240 240 240 240 240 190
 190 228 228 228 30 30 136 136 136 136 136 95 95 95 95 95 195 195 195 195
 195 240 240 240 240 240 240 240 240 228 228 228 228 228 211 211 136 136 136 95
 95 95 95 95 95 95 95 195 195 195 240 240 240 75 75 75 201 201 228 228
 228 228 228 228 37 37 37 37 37 95 95 95 95 95 95 95 95 95 32 24
 24 24 75 75 75 201 201 228 228 228 228 228 37 37 37 37 37 37 37 95
 95 95 95 95 95 95 95 32 24 24 24 24 75 137 201 201 228 228 228 228
 228 37 37 37 37 37 37 37 95 95 95 95 95 95 95 32 32 24 24 24
 24 24 137 201 201 201 228 228 228 228 37 37 37 37 37 37 37 95 95 95
 95 95 95 95 32 32 24 24 24 24 24 137 201 201 137 137 228 183 183 37
 37 37 37 37 37 37 37 95 15 15 15 15 167 167 167 167 167 167 167 167
 201 201 201 201 201 183 183 183 183 37 37 37 37 37 37 37 95 15 15 15
 15 15 167 167 167 167 167 167 167 201 201 201 201 183 183 183 183 183 183 68
 68 68 68 68 15 15 13 15 15 15 185 185 185 167 167 167 167 167 201 201
 206 206 206 183 183 183 183 183 68 68 68 68 68 15 15 13 13 13 13 185
 185 185 185 167 167 167 204 204 206 206 206 206 183 183 183 183 183 68 68 68
 68 68 13 13 13 13 13 13 185 185 185 185 208 204 204 204 204 204 206 206
 206 166 166 166 166 166 68 68 68 85 85 13 13 13 13 13 13 185 185 208
 208 208 208 204 204 204 204 206 206 206 166 166 166 166 166 166 85 85 85 85
 85 13 13 13 13 13 185 208 208 208 208 208 204 204 204 204 206 206 206 166
 166 166 166 166 166 85 85 85 85 85 13 13 13 13 13 208 208 208 208 208
 204 204 204 204 97 97 97 97 166 166 166 166 166 166 85 85 85 85 85 90
 169 169 217 217 217 217 86 86 86 118 118 118 97 97 97 97 97 80 80 80
 166 166 166 85 85 85 85 90 90 169 169 217 217 217 217 217 86 86 118 118
 118 118 97 97 97 97 80 80 80 80 74 108 108 85 90 90 90 90 186 33
 33 33 217 217 217 217 118 118 118 118 118 97 97 97 97 80 80 80 80 45
 45 108 186 186 186 186 186 186 33 33 33 33 217 217 217 118 118 118 118 118
 97 97 97 97 62 62 45 45 45 45 45 186 186 186 186 186 186 33 33 33
 33 33 217 19 118 118 118 118 118 97 97 97 97 62 124 45 45 45 45 45
 186 186 186 186 186 186 33 33 33 33 33 19 19 19 19 19 19 118 97 97
 97 111 111 111 45 45 45 45 45 186 186 186 186 186 31 33 33 33 33 33
 19 19 19 19 19 19 19 161 111 111 111 111 111 111 89 89 89 89 31 31
 31 31 31 31 222 222 222 222 19 19 19 19 19 19 19 19 19 111 111 111
 111 111 89 89 89 89 89 89 31 31 31 31 202 222 222 222 222 19 19 19
 19 19 19 19 19 19 111 111 111 111 111 89 89 89 89 89 136 136 202 202
 202 202 222 222 222 222 19 19 19 19 19 19 19 19 19 111 111 111 111 111
 89 89 89 89 136 136 136 202 202 202 224 224 224 222 222 19 19 19 19 19
 19 19 19 19 190 190 190 111 30 30 89 89 89 136 136 136 136 202 202 224
 224 224 224 19 19 19 19 19 19 19 19 19 190 190 190 190 190 30 30 30
 136 136 136 136 136 136 136 224 224 224 224 195 195 19 19 19 19 19 19 19
 190 190 190 190 190 190 30 30 30 30 136 136 136 136 136 224 224 224 224 195
 195 195 195 19 240 240 240 240 240 240 190 190 190 190 190 30 30 30 30 136
 136 136 136 136 224 224 22 22 195 195 195 195 195 240 240 240 240 240 240 190
 190 190 190 190 30 30 30 30 136 136 136 136 95 95 95 95 95 195 195 195
 195 195 240 240 240 240 240 240 240 190 190 228 228 228 30 30 30 136 136 180
 180 95 95 95 95 95 95 95 195 195 32 32 75 75 75 75 75 139 139 228
 77 77 228 228 228 37 37 37 37 180 180 95 95 95 95 95 95 95 32 32
 32 32 75 75 75 75 139 139 228 228 228 228 228 228 37 37 37 37 180 180
 95 95 95 95 95 95 95 32 32 32 24 24 75 75 75 139 201 228 228 228
 228 228 37 37 37 37 37 180 180 95 95 95 95 95 95 32 32 32 32 24
 24 24 24 75 201 201 201 228 228 228 228 37 37 37 37 37 37 37 95 95
 95 95 95 95 32 32 32 32 32 24 24 24 137 201 201 201 228 228 228 183
 37 37 37 37 37 37 37 37 95 15 15 116 116 116 32 32 32 167 167 24
 24 201 201 201 201 57 183 183 183 183 37 37 37 37 37 37 37 95 15 15
 15 116 116 116 167 167 167 167 167 167 201 201 201 201 183 183 183 183 183 183
 68 68 68 68 68 65 15 13 13 13 13 116 185 185 167 167 167 167 204 204
 201 206 206 183 183 183 183 183 183 68 68 68 68 65 65 13 13 13 13 13
 185 185 185 185 167 167 204 204 204 204 206 206 206 183 183 183 183 183 68 68
 68 68 65 65 13 13 13 13 13 185 208 208 208 208 204 204 204 204 204 204
 206 206 166 166 166 166 166 68 85 85 85 65 65 65 13 13 13 13 208 208
 208 208 208 208 204 204 204 204 204 206 206 166 166 166 166 166 166 85 85 85
 85 65 13 13 13 13 13 208 208 208 208 208 208 204 204 204 204 204 204 166
 166 166 166 166 166 166 85 85 85 85 85 13 13 13 13 208 208 208 208 208
 208 204 204 204 204 204 97 97 97 166 166 166 166 166 166 85 85 85 85 85
 85 169 169 169 169 208 208 86 86 86 204 204 204 204 97 97 97 97 80 80
 80 166 166 166 85 85 85 85 85 85 169 169 169 169 217 86 86 86 86 118
 118 118 118 97 97 97 97 80 80 80 80 166 166 67 85 85 85 186 186 169
 169 169 33 33 217 86 86 86 118 118 118 118 97 97 97 97 80 80 80 80
 199 199 67 91 91 186 186 186 186 169 33 33 33 33 217 86 86 118 118 118
 118 97 97 97 97 97 124 80 45 45 45 91 91 91 186 186 186 186 33 33
 33 33 33 33 19 19 118 118 161 161 161 97 97 97 124 124 124 45 45 45
 91 91 91 186 186 186 186 33 33 33 33 33 19 19 19 19 19 161 161 161
 161 97 97 124 124 124 45 45 89 91 91 91 186 186 186 138 138 33 33 33
 19 19 19 19 19 19 161 161 161 161 111 111 111 111 89 89 89 89 89 91
 91 186 186 186 138 138 138 33 19 19 19 19 19 19 19 19 19 161 161 35
 35 35 111 89 89 89 89 89 89 91 31 31 31 138 138 138 138 19 19 19
 19 19 19 19 19 19 161 35 35 35 35 35 89 89 89 89 89 89 89 202
 202 202 138 138 138 222 222 19 19 19 19 19 19 19 19 19 35 35 35 35
 35 89 89 89 89 89 89 136 202 202 138 224 224 224 224 224 19 19 19 19
 19 19 19 19 190 190 190 190 190 30 30 89 89 89 89 136 136 136 224 224
 224 224 224 224 224 19 19 19 19 19 19 19 19 190 190 190 190 190 30 30
 30 89 89 136 136 136 136 224 224 224 224 224 224 224 19 19 19 19 19 19
 19 19 190 190 190 190 190 30 30 30 30 136 136 136 136 224 224 224 224 224
 224 224 195 195 19 19 19 240 240 19 190 190 190 190 190 30 30 30 30 30
 30 136 136 207 224 224 224 22 22 22 195 195 195 195 240 240 240 240 75 75
 190 190 190 190 30 30 30 30 30 30 136 180 180 180 22 22 22 22 22 195
 195 195 195 240 240 240 75 75 75 75 190 190 77 77 228 30 30 30 30 180
 180 180 180 22 22 22 22 22 95 195 32 32 32 75 75 75 75 139 139 139
 77 77 77 77 77 77 77 180 180 180 180 180 180 95 147 147 147 147 32 32
 32 32 32 75 75 75 139 139 139 77 77 77 77 77 77 37 37 180 180 180
 180 180 95 147 147 147 95 32 32 32 32 32 32 75 75 139 139 139 57 77
 77 77 57 57 37 37 180 180 180 180 180 95 115 147 95 95 32 32 32 32
 32 32 24 75 139 139 139 57 57 57 57 57 57 37 37 180 180 180 180 180
 115 115 116 116 116 32 32 32 32 32 32 24 24 137 201 201 57 57 57 57
 57 57 37 37 37 37 180 180 180 115 116 116 116 116 116 116 32 32 32 32
 32 32 201 201 201 57 57 57 174 174 174 174 37 37 37 37 180 180 115 116
 116 116 116 116 116 32 32 32 32 167 167 204 201 26 57 57 174 174 174 174
 174 174 7 7 68 65 65 65 13 116 116 116 116 116 116 32 167 167 204 204
 204 26 26 26 174 174 174 174 174 174 174 7 7 65 65 65 65 13 13 116
 116 116 116 208 208 208 204 204 204 204 26 26 26 174 174 174 174 174 174 174
 85 85 65 65 65 65 13 13 13 13 208 208 208 208 208 208 204 204 204 26
 26 26 174 174 174 174 174 174 85 85 85 85 65 65 65 13 13 13 13 208
 208 208 208 208 208 204 204 204 204 204 204 166 166 166 166 166 166 85 85 85
 85 85 65 65 13 13 13 208 208 208 208 208 208 208 204 204 204 204 204 204
 166 166 166 166 166 166 166 85 85 85 85 85 65 169 169 169 208 208 208 208
 208 208 204 204 204 204 204 97 97 97 166 166 166 166 166 67 67 85 85 85
 85 85 169 169 169 169 208 86 86 86 86 204 204 204 204 97 97 97 97 80
 80 166 166 166 67 67 67 67 85 85 85 169 169 169 169 169 86 86 86 86
 86 118 118 118 97 97 97 97 80 80 80 80 199 67 67 67 67 67 85 169
 169 169 169 169 169 86 86 86 86 86 118 118 118 97 97 97 97 124 124 124
 199 199 199 67 67 91 91 186 169 169 169 169 33 33 33 86 86 86 118 118
 118 161 97 97 97 97 124 124 124 199 199 199 91 91 91 91 186 186 169 169
 33 33 33 33 33 19 19 161 161 161 161 161 161 97 124 124 124 124 199 199
 199 91 91 91 91 186 186 138 138 33 33 33 33 19 19 19 19 161 161 161
 161 161 161 124 124 124 124 124 199 89 91 91 91 91 186 186 138 138 138 138
 33 19 19 19 19 19 19 161 161 161 161 161 35 124 124 124 89 89 89 89
 91 91 91 186 138 138 138 138 138 138 19 19 19 19 19 19 19 161 161 161
 35 35 35 35 89 89 89 89 89 91 91 91 138 138 138 138 138 138 138 19
 19 19 19 19 19 19 19 161 35 35 35 35 35 89 89 89 89 89 89 89
 138 138 138 138 138 138 138 138 19 19 19 19 19 19 19 19 19 35 35 35
 35 35 89 89 89 89 89 89 89 138 138 138 224 224 224 224 224 19 19 19
 19 19 19 19 19 190 190 190 35 35 30 30 30 89 89 89 89 89 138 138
 138 224 224 224 224 224 19 19 19 19 19 19 19 19 190 190 190 190 190 30
 30 30 30 89 89 136 136 224 224 224 224 224 224 224 224 19 19 19 19 19
 19 19 190 190 190 190 190 30 30 30 30 30 30 136 207 207 224 224 224 224
 224 224 224 224 19 19 19 19 19 19 19 190 190 190 190 190 30 30 30 30
 30 30 207 207 207 207 224 224 22 22 22 22 195 195 41 41 41 75 75 75
 190 190 190 190 190 30 30 30 30 30 30 207 180 180 180 22 22 22 22 22
 22 195 195 41 41 41 75 75 75 75 139 190 190 77 77 77 30 30 30 207
 180 180 180 180 180 22 147 147 147 147 147 32 41 41 41 75 75 75 139 139
 139 77 77 77 77 77 77 180 180 180 180 180 180 180 147 147 147 147 147 147
 32 32 32 32 75 75 75 139 139 139 77 77 77 77 57 57 180 180 180 180
 180 180 180 147 147 147 147 147 32 32 32 32 32 32 75 75 139 139 139 57
 57 57 57 57 57 57 180 180 180 180 180 180 115 115 147 147 147 32 32 32
 32 32 32 32 75 139 139 57 57 57 57 57 57 57 57 180 180 180 180 180
 180 115 115 115 116 116 32 32 32 32 32 32 32 75 139 139 57 57 57 57
 57 57 57 57 180 180 180 180 180 115 115 116 116 116 116 116 116 32 32 32
 32 32 32 139 201 57 57 57 57 57 83 83 83 83 7 7 180 180 115 115
 116 116 116 116 116 116 32 32 32 32 32 32 26 26 26 57 57 83 83 83
 83 83 83 7 7 7 7 65 115 116 116 116 116 116 116 116 32 32 32 204
 26 26 26 26 26 83 83 83 83 83 83 7 7 7 7 65 65 65 116 116
 116 116 116 116 116 208 208 204 204 204 26 26 26 26 26 83 83 83 83 83
 83 7 7 85 65 65 65 13 116 116 116 116 208 208 208 208 208 204 204 26
 26 26 26 26 52 52 52 52 52 85 85 85 85 65 65 65 13 13 13 116
 208 208 208 208 208 208 204 204 204 26 26 26 26 52 52 52 52 52 52 85
 85 85 85 65 65 84 84 84 208 208 208 208 208 208 208 204 204 204 204 204
 26 52 52 52 52 52 52 67 67 85 85 85 85 65 169 169 169 208 208 208
 208 208 208 204 204 204 204 204 204 97 52 52 52 52 52 52 67 67 67 85
 85 85 85 169 169 169 169 208 208 86 86 86 204 204 204 204 204 97 97 97
 52 52 52 52 52 67 67 67 67 67 85 169 169 169 169 169 169 86 86 86
 86 86 204 204 204 97 97 97 97 124 52 80 199 199 67 67 67 67 67 67
 169 169 169 169 169 169 189 86 86 86 86 118 118 118 97 97 97 124 124 124
 124 199 199 199 67 67 67 67 67 169 169 169 169 169 169 189 193 86 86 86
 161 161 161 161 97 97 124 124 124 124 199 199 199 67 91 91 91 186 169 169
 169 169 169 33 33 193 193 19 161 161 161 161 161 161 161 124 124 124 124 199
 199 199 91 91 91 91 186 186 138 138 138 33 33 33 19 19 19 19 161 161
 161 161 161 161 124 124 124 124 124 199 199 91 91 91 91 186 186 138 138 138
 138 138 19 19 19 19 19 19 161 161 161 161 35 35 124 124 124 89 89 89
 89 91 91 91 138 138 138 138 138 138 138 19 19 19 19 19 19 19 161 161
 109 35 35 35 35 89 89 89 89 89 91 91 138 138 138 138 138 138 138 138
 19 19 19 19 19 19 19 19 109 35 35 35 35 35 89 89 89 89 89 89
 100 138 138 138 138 138 138 138 138 19 19 19 19 19 19 19 19 109 35 35
 35 35 35 35 89 89 89 89 89 100 138 138 138 138 138 138 138 138 19 19
 19 19 19 19 19 19 35 35 35 35 35 35 30 30 89 89 89 89 100 138
 138 138 224 224 224 224 224 19 19 19 19 19 19 19 19 190 190 190 190 35
 30 30 30 30 89 89 207 207 224 224 224 224 224 224 224 224 19 19 19 19
 19 19 19 190 190 190 190 190 30 30 30 30 30 207 207 207 207 207 224 224
 224 224 224 224 224 224 41 41 41 19 19 19 190 190 190 190 190 30 30 30
 30 30 207 207 207 207 207 224 224 22 22 22 22 22 41 41 41 41 41 75
 75 190 190 190 190 190 30 30 30 30 207 207 207 207 207 207 22 22 22 22
 22 22 22 41 41 41 41 41 75 75 139 139 190 190 77 77 77 30 30 207
 207 207 180 180 180 180 22 147 147 147 147 147 41 41 41 41 41 75 139 139
 139 139 57 77 77 77 57 57 207 207 180 180 180 180 180 147 147 147 147 147
 147 32 32 32 41 41 75 139 139 139 139 57 57 57 57 57 57 180 180 180
 180 180 180 180 147 147 147 147 147 147 32 32 32 32 32 75 139 139 139 57
 57 57 57 57 57 57 57 180 180 180 180 180 180 115 115 115 147 147 32 32
 32 32 32 32 32 139 139 139 57 57 57 57 57 57 57 57 180 180 180 180
 180 180 115 115 115 115 116 32 32 32 32 32 32 32 32 139 57 57 57 57
 57 57 57 57 57 180 180 180 180 180 115 115 115 116 116 116 116 116 32 32
 32 32 32 32 139 57 57 57 57 57 57 83 83 83 7 7 7 7 180 115
 115 116 116 116 116 116 116 116 32 32 32 32 26 26 26 26 57 57 83 83
 83 83 83 7 7 7 7 7 115 115 116 116 116 116 116 116 116 49 49 49
 204 26 26 26 26 26 83 83 83 83 83 83 7 7 7 7 7 65 65 116
 116 116 116 116 116 49 49 49 49 204 26 26 26 26 26 26 83 83 83 83
 83 7 7 7 7 7 65 65 84 116 116 116 116 116 49 49 49 208 204 26
 26 26 26 26 26 52 52 52 52 52 7 7 7 7 65 65 65 84 84 84
 84 208 208 208 208 208 208 204 204 26 26 26 26 26 52 52 52 52 52 52
 85 85 85 85 85 65 84 84 84 84 208 208 208 208 208 204 204 204 204 26
 26 26 52 52 52 52 52 52 67 67 67 85 85 85 85 84 84 84 84 208
 208 208 208 208 204 204 204 204 204 26 26 52 52 52 52 52 52 67 67 67
 67 85 85 84 169 169 169 169 189 208 86 86 86 204 204 204 204 204 97 97
 52 52 52 52 52 52 67 67 67 67 67 67 169 6 6 169 169 189 189 193
 193 193 193 204 204 204 97 97 97 124 124 52 52 199 199 67 67 67 67 67
 67 169 6 6 6 169 189 189 193 193 193 193 193 144 144 144 144 144 124 124
 124 124 199 199 199 67 67 67 67 67 169 6 6 6 169 189 189 193 193 193
 193 144 144 144 144 144 144 124 124 124 124 199 199 199 67 67 67 67 67 169
 6 6 6 6 189 189 193 193 193 193 144 144 144 144 144 144 124 124 124 124
 199 199 199 67 91 91 91 186 186 138 138 138 138 138 205 205 193 19 19 161
 161 161 144 144 144 124 124 124 124 124 194 194 194 91 91 91 100 138 138 138
 138 138 138 205 205 205 19 19 19 161 161 109 109 109 124 124 124 124 194 194
 194 194 91 91 100 100 138 138 138 138 138 138 205 205 205 19 19 19 109 109
 109 109 35 35 27 27 194 194 194 194 194 194 100 100 100 138 138 138 138 138
 138 205 205 205 19 19 19 19 109 109 109 35 35 35 35 194 194 194 194 194
 194 100 100 100 138 138 138 138 138 138 205 205 19 19 19 19 19 109 109 35
 35 35 35 35 35 194 194 194 194 194 100 100 100 138 138 138 138 138 138 19
 19 19 19 19 19 19 109 109 35 35 35 35 35 30 194 194 194 194 194 100
 100 100 138 224 224 224 224 224 19 19 19 19 19 19 19 104 104 190 35 35
 35 30 30 30 30 89 207 207 207 100 224 224 224 224 224 224 224 19 19 19
 19 19 19 104 104 104 190 190 190 30 30 30 30 30 207 207 207 207 203 203
 203 224 224 216 216 216 41 41 41 41 41 41 104 104 104 190 190 190 30 30
 30 30 207 207 207 207 207 203 203 203 216 216 216 216 216 41 41 41 41 41
 41 139 104 190 190 190 190 30 30 30 30 207 207 207 207 207 203 203 203 216
 216 216 216 216 41 41 41 41 41 41 139 139 139 190 190 190 77 30 30 30
 207 207 207 207 180 180 203 203 147 147 147 147 147 41 41 41 41 41 41 139
 139 139 139 57 57 77 57 57 96 96 207 207 180 180 180 180 203 147 147 147
 147 147 41 41 41 41 41 41 139 139 139 139 57 57 57 57 57 57 96 180
 180 180 180 180 180 115 115 147 147 147 147 32 32 32 32 32 75 139 139 139
 57 57 57 57 57 57 57 57 180 180 180 180 180 180 115 115 115 115 115 58
 58 32 32 32 32 32 139 139 57 57 57 57 57 57 57 57 57 180 180 180
 180 180 115 115 115 115 115 115 58 58 58 32 32 32 32 32 139 76 57 57
 57 57 57 57 57 237 237 237 180 180 180 115 115 115 115 116 116 116 58 58
 32 32 32 32 32 26 76 57 57 57 57 57 83 83 7 7 7 7 7 115
 115 115 115 116 116 116 116 116 49 49 49 49 49 26 26 26 26 57 21 21
 83 83 83 7 7 7 7 7 7 115 115 116 116 116 116 116 116 49 49 49
 49 49 26 26 26 26 26 21 21 83 83 83 7 7 7 7 7 7 7 115
 116 116 116 116 116 116 49 49 49 49 49 26 26 26 26 26 21 21 83 83
 83 7 7 7 7 7 7 65 65 84 84 116 116 116 49 49 49 49 49 204
 26 26 26 26 26 21 21 52 52 52 7 7 7 7 7 7 84 84 84 84
 84 84 61 49 49 49 49 49 204 204 26 26 26 26 26 52 52 52 52 52
 233 233 233 233 85 84 84 84 84 84 84 61 61 208 208 208 204 204 204 204
 26 26 26 52 52 52 52 52 52 233 233 233 219 219 85 84 84 84 84 84
 61 61 61 208 208 204 204 204 204 204 26 26 52 52 52 52 52 52 233 67
 219 219 219 219 84 84 84 84 84 61 189 193 193 193 193 204 204 204 204 26
 144 52 52 52 52 52 52 67 67 219 219 219 219 84 6 6 6 189 189 189
 193 193 193 193 193 144 144 144 144 144 144 124 52 52 199 199 67 67 67 219
 219 219 169 6 6 6 189 189 189 193 193 193 193 193 144 144 144 144 144 144
 124 124 124 199 199 199 67 67 67 219 219 169 6 6 6 189 189 189 193 193
 193 193 144 144 144 144 144 144 124 124 124 124 199 199 199 67 67 67 219 70
 70 6 6 6 189 189 189 193 193 193 193 144 144 144 144 144 144 124 124 124
 124 199 199 199 42 42 42 42 70 70 138 138 138 138 189 189 193 193 193 28
 144 144 144 144 144 144 124 124 124 124 124 194 194 194 42 42 42 100 138 138
 138 138 138 138 205 205 205 205 28 28 109 109 109 109 109 27 27 124 124 194
 194 194 194 42 42 100 100 138 138 138 138 138 138 205 205 205 205 205 28 109
 109 109 109 109 27 27 27 194 194 194 194 194 194 100 100 100 100 138 138 138
 138 138 205 205 205 205 205 28 109 109 109 109 109 27 27 27 194 194 194 194
 194 194 100 100 100 100 138 138 138 138 138 205 205 205 205 19 19 109 109 109
 109 35 35 27 27 194 194 194 194 194 194 100 100 100 100 138 138 138 138 138
 205 205 205 19 19 19 109 109 109 109 35 35 35 35 194 194 194 194 194 72
 100 100 100 138 138 138 138 138 138 205 205 19 19 19 19 104 104 104 104 35
 35 35 35 30 194 194 72 72 72 72 100 100 138 216 216 216 216 216 41 41
 41 19 19 104 104 104 104 104 104 35 35 30 30 30 207 207 207 207 207 203
 203 203 216 216 216 216 216 41 41 41 41 41 41 104 104 104 104 104 190 30
 30 30 96 207 207 207 207 207 203 203 203 216 216 216 216 216 41 41 41 41
 41 41 104 104 104 104 104 190 30 30 96 96 207 207 207 207 207 203 203 203
 216 216 216 216 216 41 41 41 41 41 41 139 139 104 104 104 190 77 30 96
 96 207 207 207 207 207 203 203 203 216 216 216 216 216 41 41 41 41 41 41
 41 139 139 76 76 57 1 1 1 96 96 96 207 180 180 180 203 203 115 115
 147 147 147 41 41 41 41 41 41 139 139 139 76 76 57 57 1 1 1 96
 96 180 180 180 180 180 115 115 115 115 115 58 58 58 58 58 41 41 139 139
 76 76 76 57 57 57 1 1 1 237 180 180 180 180 115 115 115 115 115 58
 58 58 58 58 58 32 32 76 76 76 76 76 57 57 57 57 57 237 237 237
 180 180 180 115 115 115 115 115 58 58 58 58 58 58 32 32 76 76 76 76
 76 57 57 57 57 237 237 237 237 237 237 180 115 115 115 115 115 116 58 58
 58 58 58 49 49 235 235 76 76 76 57 57 57 57 83 237 237 237 237 237
 237 115 115 115 116 116 116 116 200 49 49 49 49 49 235 235 230 76 59 21
 21 21 83 83 170 7 7 7 7 7 115 115 115 116 116 116 116 49 49 49
 49 49 182 182 230 230 230 59 21 21 21 83 83 170 7 7 7 7 7 7
 115 116 116 116 116 116 49 49 49 49 49 182 182 230 230 230 59 21 21 21
 83 83 170 7 7 7 7 7 7 84 84 84 84 116 116 49 49 49 49 182
 182 182 230 230 230 230 155 155 155 52 52 170 7 7 7 7 7 84 84 84
 84 84 84 61 61 49 49 49 182 182 182 230 230 230 155 155 155 52 52 52
 233 233 233 233 233 233 84 84 84 84 84 84 61 61 61 49 49 182 182 204
 230 230 230 155 155 52 52 52 52 233 233 233 233 233 219 219 84 84 84 84
 84 61 61 61 61 49 193 204 204 204 204 230 223 52 52 52 52 52 233 233
 233 219 219 219 219 84 84 84 84 61 61 61 61 193 193 193 193 204 204 144
 144 223 223 223 223 223 223 223 233 219 219 219 219 219 84 110 110 110 189 189
 189 193 193 193 193 193 144 144 144 144 144 223 223 223 223 223 199 219 219 219
 219 219 219 219 6 6 110 189 189 189 193 193 193 193 144 144 144 144 144 144
 144 223 223 223 223 199 199 219 219 219 219 219 70 110 110 110 189 189 189 193
 193 193 193 144 144 144 144 144 144 144 124 124 124 199 199 199 42 42 42 42