# vtk DataFile Version 2.0
Data set from ImportExport Version 6.5.171.b0b162591
ASCII

DATASET RECTILINEAR_GRID
DIMENSIONS 30 30 30
X_COORDINATES 30 float
-1.250000 1.250000 3.750000 6.250000 8.750000 11.250000 13.750000 16.250000 18.750000 21.250000 23.750000 26.250000 28.750000 31.250000 33.750000 36.250000 38.750000 41.250000 43.750000 46.250000 48.750000 
51.250000 53.750000 56.250000 58.750000 61.250000 63.750000 66.250000 68.750000 71.250000 
Y_COORDINATES 30 float
-1.250000 1.250000 3.750000 6.250000 8.750000 11.250000 13.750000 16.250000 18.750000 21.250000 23.750000 26.250000 28.750000 31.250000 33.750000 36.250000 38.750000 41.250000 43.750000 46.250000 48.750000 
51.250000 53.750000 56.250000 58.750000 61.250000 63.750000 66.250000 68.750000 71.250000 
Z_COORDINATES 30 float
-1.250000 1.250000 3.750000 6.250000 8.750000 11.250000 13.750000 16.250000 18.750000 21.250000 23.750000 26.250000 28.750000 31.250000 33.750000 36.250000 38.750000 41.250000 43.750000 46.250000 48.750000 
51.250000 53.750000 56.250000 58.750000 61.250000 63.750000 66.250000 68.750000 71.250000 
CELL_DATA 24389
SCALARS FeatureIds int 1
LOOKUP_TABLE default
 220 220 220 220 220 220 111 111 111 111 111 186 186 186 186 186 186 18 18 18
 18 189 189 189 189 189 220 220 220 220 220 220 220 220 111 111 111 111 111 111
 186 186 186 186 186 186 18 18 18 18 160 160 189 189 189 220 220 220 220 220
 220 220 220 111 111 111 111 111 111 111 186 186 186 186 186 18 18 18 18 160
 160 160 160 160 220 220 220 220 220 220 220 220 111 111 111 111 111 111 111 186
 186 186 186 186 18 18 18 18 160 160 160 160 160 220 220 220 220 220 220 220
 111 111 111 111 111 111 111 111 186 186 186 186 186 18 18 18 18 160 160 160
 160 160 234 220 220 88 88 88 88 111 111 111 111 111 111 111 111 233 233 233
 233 186 151 151 151 59 59 160 160 160 160 88 88 88 88 88 88 88 88 111
 111 111 111 111 111 213 233 233 233 233 233 151 151 151 59 59 59 59 59 59
 88 88 88 88 88 88 88 88 111 111 111 111 111 213 213 233 233 233 233 233
 151 151 151 59 59 59 59 59 59 88 88 88 88 88 88 88 88 88 111 111
 111 213 213 213 233 233 233 233 151 151 151 94 59 59 59 59 59 59 59 88
 88 88 88 88 88 88 88 127 127 127 127 14 14 14 233 233 233 172 172 172
 94 59 59 59 59 59 59 59 89 88 89 89 89 89 89 89 127 127 127 127
 14 14 14 14 14 172 172 172 172 172 59 59 59 59 59 59 59 89 89 89
 89 89 89 245 245 245 127 127 127 14 14 14 14 14 14 172 172 172 172 59
 59 59 59 59 59 222 89 89 89 89 89 245 245 245 245 245 127 127 14 14
 14 14 166 166 172 172 172 172 110 59 59 59 59 222 222 222 89 89 89 89
 245 245 245 245 245 245 127 14 14 14 187 187 187 172 172 172 110 117 117 117
 222 222 222 222 222 222 89 89 245 245 245 245 245 245 84 84 84 187 187 187
 187 187 187 172 110 117 117 117 117 117 222 222 222 222 222 89 245 245 245 245
 245 245 245 84 84 84 187 187 187 187 187 187 187 110 117 117 117 117 117 222
 222 222 222 222 124 124 124 201 201 201 245 245 84 84 84 187 187 187 187 187
 79 79 79 117 117 117 117 117 223 26 26 26 26 124 124 124 201 201 201 201
 201 41 41 41 187 187 187 187 79 79 79 79 87 87 87 87 223 223 223 26
 26 184 124 124 124 124 201 201 201 41 41 41 41 57 57 187 79 79 79 79
 79 87 87 87 87 223 223 223 223 223 223 124 124 124 124 201 201 201 41 41
 41 41 57 57 187 79 79 79 152 152 87 87 87 223 223 223 223 223 223 223
 124 124 124 124 124 201 201 41 41 41 41 57 57 57 152 152 152 152 152 87
 87 87 223 223 223 223 223 223 103 103 103 124 124 124 201 201 238 238 238 238
 57 57 152 152 152 152 152 152 152 167 167 223 223 223 223 223 103 103 103 103
 103 103 124 201 238 238 238 238 238 57 57 152 152 152 152 152 152 152 152 167
 167 223 223 223 223 103 103 103 103 103 103 103 103 81 81 81 81 81 81 81
 152 152 152 152 152 152 152 152 167 98 98 98 98 103 103 103 103 103 103 103
 103 103 81 81 81 81 81 81 81 152 152 152 152 152 152 152 152 98 98 98
 98 98 98 103 103 103 103 103 103 103 81 81 81 81 196 81 81 81 152 152
 152 152 152 152 210 210 98 98 98 98 98 8 103 103 103 103 103 103 103 81
 81 81 81 81 81 81 81 81 210 210 210 210 210 210 210 189 189 189 189 8
 8 8 103 220 220 220 220 220 81 81 81 81 81 81 81 81 186 210 210 210
 210 210 210 210 189 189 189 8 8 8 8 220 220 220 220 220 220 220 81 81
 81 81 81 81 186 186 186 186 210 210 210 210 210 189 189 189 189 8 8 8
 220 220 220 220 220 220 220 111 111 173 173 173 186 186 186 186 186 186 186 18
 18 18 189 189 189 189 189 189 220 220 220 220 220 220 220 90 111 111 111 173
 173 186 186 186 186 186 186 186 18 18 160 160 160 160 160 160 220 220 220 220
 220 220 220 220 90 111 111 111 111 173 186 186 186 186 186 186 186 18 18 160
 160 160 160 160 160 160 220 220 220 220 220 220 90 90 111 111 111 111 111 111
 186 186 186 186 186 186 18 18 160 160 160 160 160 160 234 220 220 116 116 116
 116 90 90 111 111 111 111 111 111 233 186 186 186 186 186 18 135 160 160 160
 160 160 160 234 220 220 88 88 88 88 88 111 111 111 111 111 111 233 233 233
 233 233 151 151 151 151 135 160 160 160 160 160 234 88 88 88 88 88 88 88
 111 111 111 111 111 233 233 233 233 233 233 151 151 151 151 151 59 160 160 160
 160 88 88 88 88 88 88 88 88 88 111 251 251 251 251 233 233 233 233 233
 151 151 151 151 94 59 59 59 59 59 88 88 88 88 88 88 88 88 88 251
 251 251 251 251 233 233 233 233 233 151 151 151 94 94 59 59 59 59 59 88
 88 88 88 88 88 88 88 88 251 251 251 251 14 14 14 233 233 233 151 151
 94 94 94 59 59 59 59 59 88 88 88 88 88 88 88 88 245 127 127 127
 127 14 14 14 14 14 14 172 94 94 94 94 59 59 59 59 222 88 88 88
 88 88 89 89 245 245 245 127 127 127 14 14 14 14 14 14 172 172 110 110
 110 59 59 222 222 222 222 222 88 89 89 89 245 245 245 245 245 127 127 14
 14 14 14 187 187 172 110 110 110 110 110 222 222 222 222 222 222 88 89 89
 245 245 245 245 245 245 245 127 14 14 14 187 187 187 187 110 110 110 110 110
 222 222 222 222 222 222 222 89 245 245 245 245 245 245 245 84 84 84 187 187
 187 187 187 187 110 110 110 110 117 117 222 222 222 222 222 222 184 184 245 245
 245 245 245 245 84 84 84 187 187 187 187 187 187 187 110 110 110 117 117 222
 222 222 222 222 222 184 184 124 245 245 245 245 245 84 84 84 187 187 187 187
 187 187 187 87 87 87 87 87 26 26 26 26 26 26 184 184 124 201 201 201
 201 41 41 41 41 187 187 187 187 187 79 79 87 87 87 87 87 223 26 26
 26 26 184 184 124 124 124 201 201 201 41 41 41 41 41 187 187 187 79 79
 79 87 87 87 87 87 223 223 223 26 26 184 124 124 124 124 201 201 201 41
 41 41 41 41 57 187 187 79 152 152 87 87 87 87 87 223 223 223 223 223
 223 124 124 124 124 124 201 201 41 41 41 41 41 57 57 152 152 152 152 152
 87 87 87 87 223 223 223 223 223 223 103 103 103 124 124 201 201 41 41 41
 41 41 41 152 152 152 152 152 152 167 167 167 167 223 223 223 223 223 103 103
 103 103 103 103 103 238 238 81 81 81 41 152 152 152 152 152 152 152 152 167
 167 167 167 223 223 223 103 103 103 103 103 103 103 103 81 81 81 81 81 81
 81 152 152 152 152 152 152 152 167 167 42 42 42 42 103 103 103 103 103 103
 103 103 81 81 81 81 81 81 81 81 152 152 152 152 152 152 152 167 42 42
 42 42 42 42 103 103 103 103 103 103 103 81 81 81 81 81 81 81 81 81
 152 152 152 152 152 152 42 42 42 42 42 42 8 103 103 103 103 103 103 103
 81 81 81 81 81 81 81 81 81 210 210 210 210 210 210 210 189 189 189 189
 8 8 8 8 220 220 220 220 220 81 81 81 81 81 81 81 81 186 210 210
 210 210 210 210 210 189 189 189 189 8 8 8 8 220 220 220 220 220 220 81
 81 81 81 81 81 186 186 186 186 210 210 210 210 210 189 189 189 189 8 8
 8 220 220 220 220 220 220 220 90 173 173 173 173 173 186 186 186 186 186 186
 186 18 160 160 189 189 189 189 220 220 220 220 220 220 220 220 90 90 173 173
 173 173 173 186 186 186 186 186 186 186 18 160 160 160 160 160 160 160 220 220
 220 220 220 220 90 90 90 90 173 173 173 173 186 186 186 186 186 186 186 135
 160 160 160 160 160 160 160 220 220 116 116 116 116 90 90 90 90 111 173 173
 173 63 186 186 186 186 186 186 135 160 160 160 160 160 160 234 116 116 116 116
 116 116 90 90 90 90 111 111 111 173 63 233 186 186 186 151 151 135 160 160
 160 160 160 160 234 234 116 218 218 218 218 90 90 90 90 111 111 111 233 233
 233 233 63 151 151 151 151 135 160 160 160 160 160 234 218 218 88 218 218 88
 88 90 111 111 111 251 251 233 233 233 233 151 151 151 151 151 151 160 160 160
 160 160 88 88 88 88 88 88 88 88 88 251 251 251 251 251 233 233 233 233
 151 151 151 151 151 94 94 59 108 108 108 88 88 88 88 88 88 88 88 88
 251 251 251 251 251 233 233 233 233 151 151 151 151 94 94 94 59 59 59 108
 88 88 88 88 88 88 88 88 88 251 251 251 251 251 14 14 14 233 151 151
 151 94 94 94 94 59 59 59 222 88 88 88 88 88 88 88 88 245 251 251
 251 127 14 14 14 14 14 14 151 94 94 94 94 94 94 59 222 222 222 88
 88 88 88 88 88 245 245 245 245 127 127 14 14 14 14 14 146 146 110 110
 110 110 94 222 222 222 222 222 222 88 88 88 88 245 245 245 245 245 127 127
 14 14 14 14 187 146 146 110 110 110 110 110 222 222 222 222 222 222 222 88
 88 245 245 245 245 245 245 245 127 14 14 187 187 187 187 146 110 110 110 110
 110 110 222 222 222 222 222 222 184 245 245 245 245 245 245 245 245 84 84 187
 187 187 187 187 187 110 110 110 110 110 222 222 222 222 222 222 222 184 184 245
 245 245 245 245 245 84 84 84 187 187 187 187 187 187 110 110 110 110 110 222
 222 222 222 222 222 222 184 184 184 245 245 245 245 245 84 84 84 187 187 187
 187 187 187 110 110 87 87 87 87 26 26 26 26 26 26 184 184 184 184 245
 245 245 41 41 41 41 187 187 187 187 187 187 136 87 87 87 87 87 87 26
 26 26 26 184 184 184 184 184 201 201 201 41 41 41 41 41 187 187 187 187
 79 87 87 87 87 87 87 87 223 26 26 26 184 184 124 124 124 201 201 201
 41 41 41 41 41 41 214 214 152 152 87 87 87 87 87 87 223 223 223 26
 26 52 103 124 124 124 124 201 41 41 41 41 41 41 41 214 152 152 152 152
 93 87 87 87 87 223 223 223 223 223 52 103 103 103 103 124 201 41 41 41
 41 41 41 41 152 152 152 152 152 152 167 167 167 167 167 223 223 223 103 103
 103 103 103 103 103 103 81 81 81 81 81 81 152 152 152 152 152 152 152 167
 167 167 167 167 223 223 223 103 103 103 103 103 103 103 81 81 81 81 81 81
 81 81 152 152 152 152 152 152 152 167 167 42 42 42 42 42 103 103 103 103
 103 103 103 81 81 81 81 81 81 81 81 81 152 152 152 152 152 152 167 42
 42 42 42 42 42 103 103 103 103 103 103 103 81 81 81 81 81 81 81 81
 81 152 152 152 152 152 152 42 42 42 42 42 42 42 103 103 103 103 103 103
 81 81 81 81 81 81 81 81 81 81 210 210 210 210 210 210 42 42 189 189
 42 8 8 8 8 220 220 220 220 220 81 81 81 81 81 81 81 81 81 210
 210 210 210 210 210 210 189 189 189 189 8 8 8 8 220 220 220 220 220 220
 81 81 81 81 81 81 81 186 186 186 210 210 210 210 210 189 189 189 189 8
 8 8 220 220 220 220 220 220 90 173 173 173 173 173 173 173 186 186 186 186
 186 239 239 239 160 160 160 160 160 234 220 220 220 220 220 220 220 90 173 173
 173 173 173 173 173 186 186 186 186 186 239 239 160 160 160 160 160 160 234 220
 220 116 116 116 116 90 90 90 173 173 173 173 173 63 63 63 63 186 186 239
 135 160 160 160 160 160 160 234 234 116 116 116 116 116 90 90 90 90 173 173
 173 173 63 63 63 63 63 63 135 135 135 160 160 160 160 234 234 234 116 116
 116 116 116 90 90 90 90 173 173 173 173 63 63 63 63 63 135 135 135 135
 160 160 160 160 234 234 234 116 218 218 218 218 90 90 90 90 90 173 173 63
 63 63 63 63 151 151 135 135 135 135 160 160 160 234 234 234 218 218 218 218
 218 218 90 90 90 251 251 251 233 233 233 233 151 151 151 151 135 135 135 160
 160 160 234 234 234 218 88 88 88 88 88 88 251 251 251 251 251 233 233 233
 233 151 151 151 151 94 94 94 108 108 108 108 108 88 88 88 88 88 88 88
 88 251 251 251 251 251 251 233 233 233 151 151 151 94 94 94 94 108 108 108
 108 108 88 88 88 88 88 88 88 88 251 251 251 251 251 14 14 14 233 151
 151 151 94 94 94 94 108 108 108 108 108 88 88 88 88 88 88 88 245 251
 251 251 251 14 14 14 14 14 146 151 94 94 94 94 94 108 108 108 222 222
 88 88 88 88 88 88 245 245 245 9 127 127 14 14 14 14 146 146 146 94
 94 110 94 82 82 222 222 222 222 222 88 88 88 88 245 245 245 245 9 9
 127 14 14 14 146 146 146 146 110 110 110 110 82 82 222 222 222 222 222 222
 97 88 245 245 245 245 245 9 9 127 14 14 187 187 146 146 146 110 110 110
 110 82 82 222 222 222 222 222 222 184 245 245 245 245 245 245 245 245 84 84
 187 187 187 187 146 146 110 110 110 110 82 82 82 222 222 222 222 222 184 184
 245 245 245 245 245 245 245 84 84 187 187 187 187 146 146 110 110 110 110 82
 82 82 222 222 222 222 222 184 184 184 245 245 245 245 245 245 84 84 187 187
 187 187 187 146 136 136 87 87 87 87 26 26 26 26 26 26 184 184 184 184
 2 2 2 2 41 41 41 187 187 187 187 187 136 136 136 87 87 87 87 26
 26 26 26 26 184 184 184 184 184 2 2 2 2 41 41 41 130 214 214 214
 214 136 136 136 87 87 87 87 87 26 26 26 26 184 52 52 52 52 2 2
 2 2 41 41 41 130 214 214 214 214 152 93 93 87 87 87 87 87 223 26
 26 26 52 52 52 52 52 2 2 2 2 41 41 41 130 214 214 214 152 152
 93 93 93 87 87 87 87 223 223 26 52 52 52 52 52 52 52 2 2 2
 41 41 41 130 214 214 152 152 152 152 93 93 167 167 167 167 167 223 223 52
 52 52 52 52 52 52 81 81 81 81 81 81 81 81 152 152 152 152 152 93
 93 167 167 167 167 167 223 223 103 103 103 103 103 103 103 81 81 81 81 81
 81 81 81 152 152 152 152 152 152 93 167 167 167 42 42 42 42 103 103 103
 103 103 103 103 81 81 81 81 81 81 81 81 81 152 152 152 152 152 93 167
 42 42 42 42 42 42 103 103 103 103 103 103 81 81 81 81 81 81 81 81
 81 81 28 152 152 152 152 93 42 42 42 42 42 42 42 42 103 103 103 103
 103 81 81 81 81 81 81 81 81 81 81 28 210 210 210 210 210 42 42 42
 42 42 42 8 8 8 220 220 220 220 81 81 81 81 81 81 81 81 81 28
 210 210 210 210 210 210 210 42 42 42 42 8 8 8 8 220 220 220 220 220
 81 81 81 81 81 81 81 81 28 186 210 210 210 210 210 210 189 189 189 189
 8 8 8 220 220 220 220 220 90 173 173 173 173 173 173 173 173 173 186 35
 35 35 239 239 239 239 160 160 160 160 234 234 220 116 116 116 116 90 173 173
 173 173 173 173 173 173 63 63 35 35 35 239 239 239 160 160 160 160 160 234
 234 220 116 116 116 116 90 90 90 173 173 173 173 173 63 63 63 63 35 35
 239 239 239 160 160 160 160 234 234 234 116 116 116 116 116 90 90 90 173 173
 173 173 173 63 63 63 63 63 63 135 135 135 160 160 160 160 234 234 234 116
 218 218 218 218 90 90 90 90 173 173 173 173 63 63 63 63 63 135 135 135
 135 135 160 160 160 234 234 234 234 218 218 218 218 90 90 90 90 173 173 173
 63 63 63 63 63 63 151 135 135 135 135 160 160 160 234 234 234 218 218 218
 218 218 218 90 90 90 251 251 251 63 63 63 63 63 151 151 135 135 135 135
 160 160 160 234 234 234 218 218 218 218 218 218 90 251 251 251 251 251 233 233
 233 233 151 151 151 151 135 135 135 108 108 108 108 108 246 246 246 246 246 246
 246 246 251 251 251 251 251 251 233 233 151 151 151 151 94 94 94 94 108 108
 108 108 108 246 246 246 246 246 246 246 246 251 251 251 251 251 14 14 14 151
 151 151 94 94 94 94 94 108 108 108 108 108 246 246 246 246 246 246 246 246
 9 251 251 251 251 14 14 14 146 146 146 94 94 94 94 94 108 108 108 108
 108 246 246 246 246 246 246 246 9 9 9 9 9 14 14 14 146 146 146 146
 146 94 94 94 82 82 82 222 222 222 222 246 246 246 246 246 245 9 9 9
 9 9 14 14 146 146 146 146 146 146 110 110 110 82 82 82 222 222 222 222
 246 97 246 97 245 245 9 9 9 9 9 14 14 146 146 146 146 146 146 110
 110 110 82 82 82 222 222 222 222 222 72 72 72 245 245 245 9 9 9 9
 9 187 187 146 146 146 146 146 110 110 110 43 82 82 82 222 222 222 222 72
 72 72 245 245 245 9 9 9 9 84 187 187 146 146 146 146 146 136 110 43
 43 43 82 82 222 222 222 222 184 184 184 184 245 245 2 245 9 84 84 187
 187 146 146 146 146 136 136 136 43 43 43 26 26 26 26 26 26 184 184 184
 184 2 2 2 2 2 41 130 130 214 214 214 146 136 136 136 136 87 87 87
 26 26 26 26 26 184 184 184 184 184 2 2 2 2 2 130 130 130 214 214
 214 214 136 136 136 136 87 87 87 87 26 26 26 26 184 52 52 52 52 2
 2 2 2 2 130 130 130 214 214 214 214 214 93 93 87 87 87 87 87 87
 26 26 26 52 52 52 52 52 2 2 2 2 143 143 130 130 130 214 214 214
 152 93 93 93 87 87 87 87 87 26 26 52 52 52 52 52 52 52 2 2
 2 143 143 130 130 130 214 214 214 70 93 93 93 93 167 167 167 167 223 26
 52 52 52 52 52 52 52 33 33 81 81 81 81 81 81 214 152 152 70 70
 93 93 93 167 167 167 167 167 52 52 52 52 52 52 52 52 33 33 81 81
 81 81 81 81 152 152 70 70 70 70 93 93 167 167 42 42 42 42 52 52
 52 52 52 52 33 33 33 81 81 81 81 81 81 28 28 70 70 70 70 70
 93 42 42 42 42 42 42 52 52 103 103 103 33 33 33 33 81 81 81 81
 81 81 28 28 28 70 70 70 70 93 42 42 42 42 42 42 42 52 236 236
 236 236 33 33 33 81 81 81 81 81 81 28 28 28 210 210 70 70 42 42
 42 42 42 42 42 42 236 236 236 236 236 33 33 33 81 81 81 81 81 81
 28 28 28 210 210 210 239 239 42 42 42 42 42 8 8 236 220 220 220 220
 33 33 33 173 173 173 173 173 28 28 28 28 210 210 239 239 239 239 42 189
 42 42 8 8 236 116 116 236 236 16 16 16 173 173 173 173 173 173 173 35
 35 35 35 239 239 239 239 239 160 160 234 234 234 236 116 116 116 116 90 16
 16 173 173 173 173 173 173 63 63 35 35 35 239 239 239 239 160 160 160 234
 234 234 234 116 116 116 116 90 90 173 173 173 173 173 173 63 63 63 35 35
 35 239 239 239 239 160 160 160 234 234 234 234 116 116 116 116 90 90 90 173
 173 173 173 173 63 63 63 63 63 35 135 135 135 135 160 160 160 234 234 234
 234 218 218 218 218 90 90 90 90 173 173 173 173 63 63 63 63 63 135 135
 135 135 135 247 247 247 234 234 234 234 218 218 218 218 90 90 90 90 173 173
 173 63 63 63 63 63 63 135 135 135 135 135 247 247 247 234 234 234 218 218
 218 218 218 218 90 90 90 251 251 251 63 63 63 63 63 151 135 135 135 135
 135 247 247 247 234 234 234 218 246 197 246 246 246 246 90 251 251 251 251 63
 63 63 63 151 151 151 135 135 135 135 108 108 108 108 108 246 246 246 246 246
 246 246 246 251 251 251 251 251 251 145 233 151 151 151 151 94 94 94 108 108
 108 108 108 108 246 246 246 246 246 246 246 246 38 38 251 251 251 14 14 146
 146 146 151 94 94 94 94 108 108 108 108 108 108 246 246 246 246 246 246 246
 246 38 38 38 251 251 14 146 146 146 146 146 146 94 94 94 108 108 108 108
 108 108 246 246 246 246 246 246 246 9 9 9 9 9 14 14 146 146 146 146
 146 146 146 94 94 82 82 82 82 222 222 246 246 246 246 246 246 246 9 9
 9 9 9 9 146 146 146 146 146 146 146 146 110 82 82 82 82 82 222 222
 222 246 97 97 97 97 245 9 9 9 9 9 9 146 146 146 146 146 146 146
 146 110 82 82 82 82 82 222 222 222 97 72 72 72 72 245 9 9 9 9
 9 9 146 146 146 146 146 146 146 146 110 43 43 82 82 82 222 222 222 72
 72 72 72 72 72 9 9 9 9 9 9 253 146 146 146 146 146 146 136 136
 43 43 43 82 82 222 222 222 72 72 72 72 72 2 2 2 2 9 9 253
 253 253 146 146 146 146 136 136 136 43 43 43 82 26 26 26 26 72 72 184
 72 72 2 2 2 2 2 130 130 253 253 214 214 214 136 136 136 136 136 87
 87 26 26 26 26 26 205 52 52 52 52 2 2 2 2 2 143 130 130 214
 214 214 214 136 136 136 136 87 87 87 87 26 26 26 205 205 52 52 52 52
 2 2 2 2 143 143 130 130 130 214 214 214 136 93 93 93 87 87 87 87
 87 26 26 205 205 52 52 52 52 2 2 2 143 143 143 130 130 130 214 214
 214 214 93 93 93 93 87 87 87 87 237 205 205 52 52 52 52 52 52 36
 36 36 143 143 143 130 130 214 214 214 70 93 93 93 93 167 167 167 167 237
 237 52 52 52 52 52 52 52 36 36 36 36 143 143 130 130 214 214 70 70
 70 93 93 93 93 167 167 237 237 237 52 52 52 52 52 52 33 33 33 33
 81 81 81 81 81 28 28 70 70 70 70 93 93 93 167 42 42 237 237 52
 52 52 52 52 52 33 33 33 33 81 81 81 81 28 28 28 70 70 70 70
 70 93 93 42 42 42 42 42 52 52 236 236 236 33 33 33 33 33 81 81
 81 81 28 28 28 28 70 70 70 70 93 42 42 42 42 42 42 236 236 236
 236 236 236 33 33 33 33 81 81 81 81 28 28 28 28 70 70 70 70 42
 42 42 42 42 42 42 236 236 236 236 236 236 33 33 33 33 81 81 81 81
 28 28 28 28 210 210 239 239 239 239 42 42 42 42 42 236 236 236 236 236
 236 33 33 33 173 173 173 173 173 28 28 28 28 210 239 239 239 239 239 239
 42 42 42 169 236 236 236 236 236 236 16 16 16 16 173 173 173 173 173 173
 35 35 35 239 239 239 239 239 239 239 169 169 169 169 236 116 116 236 236 16
 16 16 16 173 173 173 173 173 63 35 35 35 35 239 239 239 239 239 169 169
 169 169 122 236 116 116 116 116 16 16 16 16 173 173 173 173 63 63 63 35
 35 35 239 239 239 239 239 122 122 122 122 234 234 116 116 116 116 90 16 16
 16 173 173 173 173 63 63 63 63 63 35 239 239 239 239 247 247 122 234 234
 234 234 218 218 218 218 90 90 90 16 173 173 173 63 63 63 63 63 63 135
 135 135 135 247 247 247 247 234 234 234 234 197 197 197 197 90 90 90 90 173
 173 173 63 63 63 63 63 63 135 135 135 135 247 247 247 247 247 234 234 197
 197 197 197 197 246 90 39 39 39 39 47 63 63 63 63 63 63 135 135 135
 135 135 247 247 247 247 234 234 197 197 197 197 246 246 246 39 39 39 39 251
 145 145 63 63 63 162 162 135 135 135 135 247 108 108 108 108 246 246 246 246
 246 246 246 246 246 38 39 39 251 145 145 145 162 162 151 162 135 94 94 108
 108 108 108 108 108 246 246 246 246 246 246 246 246 38 38 38 216 216 145 145
 203 203 203 203 203 15 15 15 108 108 108 108 108 108 246 246 246 246 246 246
 246 246 38 38 38 216 216 216 203 203 203 203 203 203 15 15 15 108 108 108
 108 108 246 246 246 246 246 246 246 246 246 38 38 38 216 216 216 146 146 146
 146 146 146 15 15 15 82 82 121 121 121 246 246 246 97 97 97 97 246 9
 9 9 9 9 9 146 146 146 146 146 146 146 15 15 15 82 82 82 82 82
 222 246 97 97 97 97 97 97 9 9 9 9 9 9 146 146 146 146 146 146
 146 146 45 45 82 82 82 82 82 222 222 97 72 72 72 72 72 9 9 9
 9 9 9 146 146 146 146 146 146 146 146 45 45 45 82 82 82 82 222 72
 72 72 72 72 72 72 9 9 9 9 9 9 253 146 146 146 146 146 146 136
 45 45 45 45 82 82 82 222 72 72 72 72 72 72 72 2 2 9 9 9
 253 253 253 215 215 146 146 136 136 136 45 45 45 45 26 26 26 72 72 72
 72 72 72 2 2 2 2 2 253 253 253 253 215 215 215 136 136 136 136 136
 45 45 45 26 26 205 205 205 205 52 52 72 2 2 2 2 143 143 130 253
 253 214 214 214 136 136 136 136 136 87 87 87 26 205 205 205 205 52 52 52
 52 2 2 2 143 143 143 130 130 214 214 214 214 214 93 93 93 93 87 87
 87 237 237 205 205 205 52 52 52 52 52 36 36 36 143 143 143 130 130 214
 214 214 214 93 93 93 93 93 87 87 237 237 205 205 205 52 52 52 52 52
 36 36 36 143 143 143 130 130 214 214 214 70 93 93 93 93 93 106 106 237
 237 237 205 52 52 52 52 52 52 36 36 36 36 143 143 130 130 214 214 70
 70 70 93 93 93 93 167 106 237 237 237 237 52 52 52 52 52 33 33 33
 33 33 81 81 81 28 28 28 70 70 70 70 93 93 93 93 106 237 237 237
 69 69 69 52 52 52 33 33 33 33 33 81 81 81 28 28 28 28 70 70
 70 70 93 93 42 42 42 237 237 69 69 236 236 236 236 33 33 33 33 33
 81 81 81 28 28 28 28 70 70 70 70 85 85 85 42 42 42 42 236 236
 236 236 236 236 33 33 33 33 33 81 81 81 28 28 28 28 70 70 70 239
 85 85 85 42 42 42 42 236 236 236 236 236 236 33 33 33 33 33 173 173
 81 28 28 28 28 28 239 239 239 239 239 42 42 42 42 169 236 236 236 236
 236 236 236 33 16 16 173 173 173 173 28 28 28 28 239 239 239 239 239 239
 239 42 169 169 169 236 236 236 236 236 236 16 16 16 16 16 173 173 173 173
 13 35 35 35 239 239 239 239 239 239 169 169 169 169 169 236 126 126 126 126
 16 16 16 16 16 173 173 173 173 63 35 35 35 239 239 239 239 239 239 169
 169 169 112 122 236 126 126 126 126 16 16 16 16 16 173 173 173 63 63 63
 35 35 239 239 239 239 239 239 122 122 122 122 122 122 126 126 126 126 16 16
 16 16 16 173 173 63 63 63 63 63 32 32 239 239 239 239 247 122 122 122
 122 122 122 197 218 197 197 90 16 16 16 16 173 47 63 63 63 63 63 63
 32 32 135 135 247 247 247 247 122 122 122 122 197 197 197 197 246 39 39 39
 39 39 47 47 63 63 63 63 63 162 135 135 135 247 247 247 247 122 122 122
 197 197 197 197 197 246 39 39 39 39 39 47 145 145 63 63 63 162 162 162
 135 135 247 247 247 247 149 149 149 197 197 192 197 246 246 246 39 39 39 39
 145 145 145 145 145 162 162 162 162 162 135 247 247 247 149 149 149 246 197 246
 246 246 246 246 246 39 39 39 39 145 145 145 145 162 162 162 162 162 162 15
 108 108 108 108 149 149 246 246 246 209 246 246 246 246 38 38 216 216 216 145
 145 203 203 203 203 203 15 15 15 15 108 108 108 108 246 246 246 246 246 246
 246 246 246 38 38 216 216 216 216 203 203 203 203 203 203 15 15 15 15 121
 121 121 121 246 246 246 246 246 246 246 246 38 38 38 38 216 216 216 203 203
 203 203 203 203 15 15 15 15 121 121 121 121 121 246 246 97 97 97 97 246
 38 38 38 38 216 216 216 203 203 203 146 146 15 15 15 15 15 82 121 121
 121 121 246 97 97 97 97 97 97 9 9 9 9 9 216 216 146 146 146 146
 146 146 15 15 45 45 82 82 82 82 121 246 97 72 72 72 72 72 9 9
 9 9 9 9 107 146 146 146 146 146 146 15 45 45 45 45 82 82 55 55
 72 72 72 72 72 72 72 72 9 9 9 9 107 107 215 215 215 146 146 146
 136 45 45 45 45 45 55 55 55 72 72 72 72 72 72 72 72 9 9 9
 107 107 107 215 215 215 215 146 136 136 45 45 45 45 45 55 55 55 72 72
 72 72 72 72 72 2 2 2 107 107 107 253 215 215 215 215 215 136 136 136
 45 45 45 45 55 205 205 205 205 205 72 72 72 72 2 2 2 143 107 107
 107 215 215 215 30 30 136 136 136 136 87 45 106 237 205 205 205 205 205 52
 52 52 36 36 36 36 143 143 107 107 107 214 214 30 30 93 93 93 93 106
 106 106 237 237 205 205 205 52 52 52 52 36 36 36 36 143 143 143 107 107
 214 214 30 30 93 93 93 93 106 106 106 237 237 205 205 205 52 52 52 52
 52 36 36 36 36 143 143 130 130 214 214 30 70 93 93 93 93 106 106 106
 237 237 237 205 205 69 52 52 52 52 36 36 36 36 36 143 130 28 214 28
 70 70 93 93 93 93 93 106 106 237 237 237 237 69 69 69 52 52 33 33
 33 33 36 36 81 81 28 28 28 70 70 70 93 93 93 93 106 106 237 237
 237 69 69 69 69 69 33 33 33 33 33 33 33 81 81 28 28 28 28 70
 70 70 70 85 85 85 85 237 237 237 69 69 236 236 236 236 33 33 33 33
 33 33 81 81 28 28 28 28 70 70 70 85 85 85 85 85 85 237 237 69
 69 236 236 236 236 33 33 33 33 33 33 81 81 28 28 28 28 28 70 85
 85 85 85 85 85 85 169 169 236 236 236 236 236 236 49 49 33 33 33 33
 173 28 28 28 28 13 13 239 239 239 239 85 85 85 169 169 169 236 236 236
 236 236 236 49 49 16 16 16 173 173 173 13 13 13 13 239 239 239 239 239
 239 239 169 169 169 169 169 236 126 126 236 236 49 16 16 16 16 173 173 173
 13 13 13 13 32 239 239 239 239 239 239 169 169 169 169 169 236 126 126 126
 126 49 16 16 16 16 16 173 173 13 13 35 32 32 239 239 239 239 239 169
 169 169 169 112 112 126 126 126 126 126 16 16 16 16 16 16 173 173 63 63
 63 32 32 32 239 239 239 239 122 122 122 122 122 122 122 126 126 126 126 16
 16 16 16 16 16 47 47 63 63 63 32 32 32 32 239 239 239 122 122 122
 122 122 122 122 197 126 197 197 161 161 16 16 16 47 47 47 47 63 63 32
 32 32 32 32 239 247 247 122 122 122 122 122 122 197 197 197 197 161 39 39
 39 39 39 47 47 47 63 63 63 162 32 32 32 135 247 247 247 122 122 122
 122 122 197 197 197 197 246 39 39 39 39 39 47 145 145 145 145 162 162 162
 162 162 135 247 247 247 149 149 149 149 197 197 197 197 246 246 39 39 39 39
 39 145 145 145 145 145 162 162 162 162 162 162 247 247 149 149 149 149 149 246
 246 246 246 246 246 39 39 39 39 39 145 145 145 145 145 162 162 162 162 162
 15 15 108 149 149 149 149 246 246 246 246 246 246 246 246 39 39 216 216 216
 145 145 203 203 203 203 162 15 15 15 15 108 121 121 149 149 246 246 246 246
 246 246 246 246 38 38 216 216 216 145 203 203 203 203 203 203 15 15 15 15
 121 121 121 121 246 246 246 246 246 246 246 246 38 38 38 216 216 216 216 203
 203 203 203 203 203 15 15 15 15 121 121 121 121 121 246 246 97 97 97 97
 246 38 225 225 216 216 216 216 203 203 203 203 203 15 15 15 15 15 121 121
 121 121 121 246 97 97 97 97 97 97 225 225 225 225 216 216 216 203 203 203
 203 203 15 15 15 15 129 129 82 121 55 55 97 97 72 72 72 72 72 225
 225 225 225 9 9 107 146 146 146 146 146 15 15 129 129 129 129 129 55 55
 55 55 72 72 72 72 72 72 72 225 225 225 225 107 107 215 215 215 146 146
 146 15 129 129 129 129 129 55 55 55 55 72 72 72 72 72 72 62 225 225
 225 107 107 107 215 215 215 215 21 21 136 129 129 129 129 129 55 55 55 55
 72 72 72 72 72 72 62 2 107 107 107 107 107 107 215 215 215 30 136 136
 129 129 129 129 129 55 55 205 205 72 205 72 72 72 72 36 36 107 107 107
 107 107 107 215 30 30 30 30 136 136 129 129 129 106 237 237 205 205 205 205
 52 52 52 36 36 36 36 143 107 107 107 107 107 30 30 30 30 93 93 93
 106 106 106 237 237 205 205 205 52 52 52 52 36 36 36 36 36 143 107 107
 107 107 30 30 30 30 93 93 93 106 106 106 237 237 237 205 205 69 69 69
 52 36 36 36 36 36 36 143 107 107 107 30 30 30 93 93 93 93 106 106
 106 237 237 237 237 69 69 69 69 52 36 36 36 36 36 36 36 80 80 249
 249 30 70 93 93 93 93 106 106 106 237 237 237 237 69 69 69 69 69 33
 33 33 36 36 36 36 249 249 249 249 28 70 70 93 93 93 106 106 106 237
 237 237 69 69 69 69 69 69 33 33 33 33 33 33 249 249 249 249 249 28
 28 70 85 85 85 85 85 85 237 237 237 69 69 69 236 236 236 33 33 33
 33 33 33 249 249 249 249 249 28 28 70 85 85 85 85 85 85 85 237 237
 69 69 236 236 236 236 49 49 33 33 33 33 13 13 13 13 13 13 13 85
 85 85 85 85 85 85 85 169 169 69 236 236 236 236 236 49 49 49 49 33
 33 13 13 13 13 13 13 13 239 239 85 85 85 85 85 169 169 169 169 236
 236 236 236 236 49 49 49 16 16 173 173 13 13 13 13 13 13 239 239 239
 239 239 85 169 169 169 169 169 236 126 126 126 126 49 49 16 16 16 173 173
 13 13 13 13 13 32 177 239 239 239 239 239 169 169 169 169 169 169 126 126
 126 126 49 16 16 16 16 16 173 13 13 13 13 32 32 32 239 239 239 239
 169 169 169 112 169 169 126 126 126 126 126 16 16 16 16 16 16 47 47 47
 83 83 32 32 32 32 239 239 239 122 122 122 169 122 122 122 126 126 126 126
 161 161 16 16 16 47 47 47 47 83 83 32 32 32 32 32 239 239 122 122
 122 122 122 122 122 126 126 126 161 161 161 161 161 47 47 47 47 47 83 83
 32 32 32 32 32 239 122 122 122 122 122 122 122 122 197 197 197 161 161 161
 39 39 39 47 47 47 47 47 83 83 32 32 32 32 32 247 122 122 122 122
 122 122 122 197 197 197 246 161 39 39 39 39 39 47 145 145 145 145 162 162
 162 162 162 162 247 247 149 149 149 149 149 246 246 246 246 246 246 39 39 39
 39 39 145 145 145 145 145 162 162 162 162 162 162 162 149 149 149 149 149 149
 246 246 246 246 246 246 39 39 39 39 39 145 145 145 145 145 162 162 162 162
 162 15 15 149 149 149 149 149 149 246 246 246 246 246 246 246 39 39 39 216
 145 145 145 145 203 203 203 162 15 15 15 15 15 66 149 149 149 246 246 246
 246 246 246 246 246 38 216 216 216 216 145 203 203 203 203 203 203 15 15 15
 15 15 121 121 121 246 246 246 246 246 246 246 246 67 225 216 216 216 216 216
 203 203 203 203 203 203 15 15 15 15 15 121 121 121 121 246 246 97 97 97
 97 67 67 225 225 225 216 216 216 203 203 203 203 203 203 15 15 15 15 15
 121 121 121 121 246 246 97 97 97 97 67 67 225 225 225 225 216 212 203 203
 203 203 203 15 15 15 15 129 129 129 55 55 55 55 97 72 72 72 72 62
 62 225 225 225 225 107 107 203 203 203 203 203 15 15 129 129 129 129 129 55