# vtk DataFile Version 2.0
Data set from ImportExport Version 6.5.171.b0b162591
ASCII

DATASET RECTILINEAR_GRID
DIMENSIONS 30 30 30
X_COORDINATES 30 float
-1.250000 1.250000 3.750000 6.250000 8.750000 11.250000 13.750000 16.250000 18.750000 21.250000 23.750000 26.250000 28.750000 31.250000 33.750000 36.250000 38.750000 41.250000 43.750000 46.250000 48.750000 
51.250000 53.750000 56.250000 58.750000 61.250000 63.750000 66.250000 68.750000 71.250000 
Y_COORDINATES 30 float
-1.250000 1.250000 3.750000 6.250000 8.750000 11.250000 13.750000 16.250000 18.750000 21.250000 23.750000 26.250000 28.750000 31.250000 33.750000 36.250000 38.750000 41.250000 43.750000 46.250000 48.750000 
51.250000 53.750000 56.250000 58.750000 61.250000 63.750000 66.250000 68.750000 71.250000 
Z_COORDINATES 30 float
-1.250000 1.250000 3.750000 6.250000 8.750000 11.250000 13.750000 16.250000 18.750000 21.250000 23.750000 26.250000 28.750000 31.250000 33.750000 36.250000 38.750000 41.250000 43.750000 46.250000 48.750000 
51.250000 53.750000 56.250000 58.750000 61.250000 63.750000 66.250000 68.750000 71.250000 
CELL_DATA 24389
SCALARS FeatureIds int 1
LOOKUP_TABLE default
 163 163 163 163 163 163 163 171 171 171 39 39 39 97 97 97 97 97 97 38
 38 155 155 155 155 155 155 74 74 163 163 163 163 163 163 163 171 171 171 171
 39 39 97 97 97 97 97 38 38 38 155 155 155 155 155 155 74 74 163 163
 163 163 163 163 163 105 105 105 105 105 97 97 97 97 97 97 38 38 38 155
 155 155 155 155 155 74 74 163 163 163 163 163 163 105 105 105 105 105 105 105
 97 97 97 97 38 38 38 38 155 155 155 155 155 155 74 74 163 163 163 163
 163 105 105 105 105 105 105 105 105 97 97 97 97 38 38 38 38 155 155 155
 155 155 155 155 74 163 163 163 163 163 105 105 105 105 105 105 105 105 184 184
 184 184 184 38 38 155 155 155 155 155 155 155 155 155 59 59 59 59 105 105
 105 105 105 105 105 105 105 184 184 184 184 184 15 15 155 155 155 155 155 155
 155 155 155 59 59 59 59 59 161 161 161 161 161 161 161 105 184 184 184 184
 184 15 170 155 155 231 231 231 155 155 155 59 59 59 59 59 59 145 145 145
 145 161 161 161 161 184 184 184 127 127 127 127 127 155 231 231 231 231 231 59
 59 59 59 52 52 52 145 145 145 145 145 161 210 210 184 184 127 127 127 127
 127 127 231 231 231 231 231 231 59 59 59 59 52 52 52 93 93 145 145 96
 96 210 210 70 70 127 127 127 127 22 22 22 231 231 231 125 125 129 59 59
 59 52 52 93 93 93 93 96 96 96 210 210 70 70 127 127 127 22 22 22
 22 22 125 125 125 125 125 59 59 59 211 52 93 93 93 93 93 96 96 96
 96 70 70 70 31 31 22 22 22 22 125 125 125 125 125 125 125 211 211 211
 211 93 93 93 93 93 96 96 96 96 70 70 31 31 31 22 22 22 22 125
 125 125 125 125 125 125 211 211 211 211 211 183 93 93 93 96 96 96 96 96
 19 19 19 19 19 19 66 66 193 193 193 193 193 193 193 211 211 211 211 183
 183 183 93 93 96 96 96 96 96 19 19 19 19 19 66 66 66 66 193 193
 193 193 193 193 126 126 211 211 183 183 183 93 23 23 96 96 187 187 19 19
 19 19 19 66 66 66 66 66 193 193 193 193 193 126 126 126 211 183 183 183
 23 23 23 23 187 187 187 187 11 11 11 11 66 66 66 66 66 54 54 54
 54 54 126 126 126 211 183 183 183 23 23 23 187 187 187 187 187 11 11 11
 11 66 66 66 66 66 54 54 54 54 130 159 159 159 159 159 183 187 187 187
 187 187 187 187 187 187 11 11 11 11 11 66 66 66 66 54 54 216 130 130
 159 159 159 159 159 159 187 187 187 187 187 187 187 187 187 11 11 11 11 9
 9 66 66 66 83 216 216 130 130 159 159 159 159 8 8 8 187 187 187 187
 187 187 187 187 11 11 11 9 9 9 4 4 4 83 83 216 130 130 159 159
 159 8 8 8 8 8 191 191 191 191 191 69 69 69 11 232 9 9 4 4
 4 4 83 83 216 130 130 159 159 8 8 8 8 8 8 191 191 191 191 191
 69 69 69 232 232 232 4 4 4 4 4 181 181 63 63 63 159 8 8 8
 8 8 8 8 191 191 191 191 191 69 69 69 232 232 4 4 4 4 4 4
 181 181 181 63 63 159 8 71 71 8 8 8 8 191 191 191 191 191 69 69
 69 232 232 4 4 4 4 4 181 181 181 181 181 63 104 104 104 104 104 104
 104 39 39 39 39 39 39 69 69 69 232 232 4 4 4 4 4 181 181 181
 181 181 181 104 104 104 104 104 104 104 39 39 39 39 39 39 39 97 97 97
 97 97 4 4 4 4 181 181 181 181 181 181 163 163 163 163 163 163 163 163
 39 39 39 39 39 97 97 97 97 97 97 97 4 4 4 181 181 181 181 181
 181 163 163 163 163 163 163 171 171 171 171 171 171 39 97 97 97 97 97 97
 38 38 155 155 155 155 155 74 74 74 163 163 163 163 163 163 171 171 171 171
 171 171 171 97 97 97 97 97 38 38 38 155 155 155 155 155 74 74 74 163
 163 163 163 163 163 73 105 171 171 171 203 203 97 97 97 97 97 38 38 38
 155 155 155 155 155 74 74 74 74 163 163 163 163 73 73 105 105 105 105 105
 105 97 97 97 97 38 38 38 38 155 155 155 155 155 74 74 74 74 163 56
 56 56 105 105 105 105 105 105 105 105 97 97 97 97 38 38 38 38 155 155
 155 155 155 155 74 74 59 59 56 56 56 105 105 105 105 105 105 105 105 184
 184 184 184 184 38 38 155 155 155 155 155 155 155 74 74 59 59 59 59 59
 105 105 105 105 105 105 105 105 184 184 184 184 184 15 38 155 155 155 155 155
 155 155 155 59 59 59 59 59 59 161 161 161 161 161 161 161 105 184 184 184
 184 184 127 127 155 155 231 231 231 155 155 59 59 59 59 59 59 59 145 145
 145 145 161 161 161 105 184 184 184 127 127 127 127 127 155 231 231 231 231 231
 59 59 59 59 59 59 59 145 145 145 145 145 161 161 210 184 184 127 127 127
 127 127 127 231 231 231 231 231 129 59 59 59 59 59 59 93 93 93 145 145
 145 96 96 96 70 70 127 127 127 127 127 22 132 132 129 129 129 129 129 59
 59 59 59 59 93 93 93 93 96 96 96 96 96 70 70 127 127 127 127 127
 22 132 132 129 129 129 129 129 59 59 59 59 59 93 93 93 93 93 96 96
 96 96 70 70 70 127 31 111 111 111 111 132 125 125 125 125 125 59 211 211
 211 211 93 93 93 93 93 96 96 96 96 96 70 31 31 111 111 111 111 111
 132 125 125 125 125 125 125 211 211 211 211 211 183 93 93 93 96 96 96 96
 96 96 19 19 19 111 111 111 66 66 193 193 193 193 193 193 211 211 211 211
 183 183 183 93 93 96 96 96 96 96 19 19 19 19 66 66 66 66 66 193
 193 149 193 193 193 126 211 211 211 183 183 183 93 23 23 23 96 96 187 187
 19 19 19 66 66 66 66 66 66 193 193 193 193 193 126 211 211 211 211 183
 183 23 23 23 23 187 187 187 187 11 11 11 11 66 66 66 66 66 54 54
 54 54 54 159 159 159 159 211 183 183 23 23 23 187 187 187 187 187 11 11
 11 11 66 66 66 66 66 54 54 54 54 54 159 159 159 159 159 159 183 187
 187 187 187 187 187 187 187 11 11 11 11 11 66 66 66 66 54 54 216 216
 130 159 159 159 159 159 159 159 187 187 187 187 187 187 187 187 11 11 11 11
 9 9 66 66 66 83 216 216 216 130 159 159 159 159 71 71 71 187 187 187
 187 187 187 187 187 11 11 11 9 9 9 9 4 4 83 130 130 130 130 159
 159 159 71 8 8 8 8 191 191 191 191 191 191 69 232 232 232 9 9 9
 4 4 4 83 130 130 216 216 159 159 8 8 8 8 8 8 191 191 191 191
 191 191 69 232 232 232 232 9 4 4 4 4 181 181 63 63 63 63 8 8
 71 8 8 8 8 191 191 191 191 191 191 69 232 232 232 232 4 4 4 4
 181 181 181 181 63 63 63 8 71 71 8 8 8 191 191 191 191 41 41 41
 69 232 232 232 232 4 4 4 4 181 181 181 181 181 63 63 104 104 104 104
 104 104 191 41 41 41 41 41 41 69 97 232 232 232 4 4 4 181 181 181
 181 181 181 63 104 104 104 104 104 104 104 171 39 39 39 39 39 97 97 97
 97 97 97 97 4 4 181 181 181 181 181 181 63 163 163 163 163 163 163 163
 171 171 171 39 39 39 97 97 97 97 97 97 97 97 4 181 181 181 181 181
 181 63 163 163 163 163 163 171 171 171 171 171 171 171 171 97 97 97 97 97
 97 38 38 186 186 186 186 186 74 74 74 163 163 163 56 56 171 171 171 171
 171 171 171 171 97 97 97 97 97 97 38 38 155 155 155 155 155 74 74 74
 74 163 56 56 56 73 73 73 171 171 171 171 171 97 97 97 97 97 38 38
 38 155 155 155 155 155 74 74 74 74 56 56 56 56 73 73 73 203 203 203
 203 203 97 97 97 97 97 38 38 38 155 155 155 155 155 74 74 74 74 56
 56 56 56 73 73 73 105 105 105 105 105 97 97 97 97 38 38 38 38 155
 155 155 155 155 74 74 74 59 59 56 56 56 73 105 105 105 105 105 105 105
 184 184 184 184 184 38 38 155 155 155 155 155 155 155 74 74 59 59 59 59
 51 105 105 105 105 105 105 105 105 184 184 184 184 184 184 38 155 155 155 155
 155 155 155 74 59 59 59 59 59 59 51 161 161 161 161 161 161 105 184 184
 184 184 184 127 127 155 14 14 14 14 14 155 59 59 59 59 59 59 59 59
 145 145 145 161 161 161 161 184 184 184 127 127 127 127 127 14 14 14 14 14
 14 59 59 59 59 59 59 59 20 20 145 145 145 161 161 161 184 184 127 127
 127 127 127 127 14 14 14 14 129 129 59 59 59 59 59 59 59 20 20 20
 145 145 96 96 96 184 184 127 127 127 127 127 127 132 132 132 129 129 129 129
 59 59 59 59 59 93 93 20 20 20 96 96 96 96 96 70 127 127 127 127
 111 111 132 132 132 129 129 129 129 59 59 59 59 59 93 93 93 93 96 96
 96 96 96 96 70 127 127 111 111 111 111 132 132 132 129 129 129 129 59 59
 59 211 211 93 93 93 93 93 96 96 96 96 96 96 111 111 111 111 111 111
 111 81 81 125 125 125 125 125 211 211 211 211 183 183 93 93 93 96 96 96
 96 96 96 111 111 111 111 111 111 111 81 193 193 193 193 193 193 49 211 211
 211 183 183 183 93 93 96 96 96 96 96 96 19 19 111 111 111 66 66 66
 193 193 193 193 193 193 49 49 211 211 211 183 183 93 23 23 23 187 187 187
 187 11 11 11 66 66 66 66 66 66 193 193 193 193 193 49 49 211 211 211
 183 183 23 23 23 23 187 187 187 187 11 11 11 11 66 66 66 66 66 54
 54 54 54 54 159 159 159 211 211 183 183 23 23 23 187 187 187 187 187 11
 11 11 11 66 66 66 66 66 54 54 54 54 130 159 159 159 159 159 159 152
 187 187 187 187 187 187 187 187 11 11 11 11 11 66 66 66 66 54 54 130
 216 130 159 159 159 159 159 159 152 152 187 187 187 187 187 187 187 11 11 11
 11 9 9 66 66 66 54 130 130 130 216 159 159 159 159 71 71 152 152 187
 187 187 187 187 187 187 232 232 232 9 9 9 9 4 66 130 130 130 130 216
 159 159 159 8 8 8 8 152 191 191 191 191 191 191 191 232 232 232 232 9
 9 4 4 4 130 130 130 130 216 159 159 8 8 8 8 8 152 191 191 191
 191 191 191 191 232 232 232 232 232 4 4 4 181 181 181 63 63 63 63 8
 8 8 8 8 8 116 191 191 191 191 191 41 41 232 232 232 232 232 4 4
 4 181 181 181 181 63 63 63 8 8 8 8 8 8 116 41 41 41 41 41
 41 41 232 232 232 232 232 4 4 181 181 181 181 181 181 63 63 8 8 8
 8 8 8 116 41 41 41 41 41 41 41 232 232 232 232 232 4 181 181 181
 181 181 181 181 181 104 104 104 104 104 61 171 171 171 41 41 41 41 41 97
 97 97 97 97 97 4 181 181 181 181 181 181 181 181 163 163 163 163 163 163
 171 171 171 171 171 41 41 97 97 97 97 97 97 97 97 186 186 181 181 181
 181 181 181 74 56 56 56 56 171 171 171 171 171 171 171 171 97 97 97 97
 97 97 97 186 186 186 186 186 186 74 74 74 74 56 56 56 56 56 171 171
 171 171 171 171 171 97 97 97 97 97 97 38 234 186 186 186 186 74 74 74
 74 74 56 56 56 56 166 73 73 203 203 171 171 171 97 97 97 97 97 38
 38 234 234 186 186 186 74 74 74 74 74 56 56 56 56 166 73 73 203 203
 203 203 171 226 226 226 226 226 38 38 234 234 234 155 155 74 74 74 74 74
 56 56 56 56 166 73 73 203 203 203 203 105 226 226 226 226 226 38 38 234
 234 155 155 155 155 74 74 74 74 56 56 56 56 166 73 105 105 105 105 105
 105 184 184 184 184 184 38 38 155 155 155 155 155 155 74 74 74 59 59 59
 51 51 51 134 134 105 105 105 105 105 184 184 184 184 184 184 38 155 14 14
 14 14 14 155 74 74 59 59 59 51 51 51 134 134 161 161 161 161 161 184
 184 184 184 184 127 127 14 14 14 14 14 14 14 59 59 59 59 59 59 51
 51 134 134 145 161 161 161 161 184 184 184 127 127 127 127 14 14 14 14 14
 14 14 59 59 59 59 59 59 59 20 20 20 145 145 161 161 161 184 184 127
 127 127 127 127 127 14 14 14 14 129 129 59 59 59 59 59 59 59 20 20
 20 20 20 96 96 96 184 184 127 127 127 127 127 111 132 132 132 129 129 129
 129 59 59 59 59 59 59 20 20 20 20 96 96 96 96 96 204 127 127 127
 111 111 111 132 132 132 129 129 129 129 59 59 59 59 59 93 93 20 20 20
 96 96 96 96 96 96 111 111 111 111 111 111 81 132 132 129 129 129 129 59
 59 59 211 211 93 93 93 93 93 96 96 96 96 96 118 111 111 111 111 111
 111 81 81 81 81 129 129 129 59 49 49 211 211 183 93 93 93 93 96 96
 96 96 96 118 118 25 111 111 111 111 81 81 81 81 193 193 193 193 49 49
 49 211 211 183 93 93 96 96 96 96 96 118 118 118 25 111 111 111 111 66
 81 81 193 193 193 193 49 49 49 49 211 211 183 183 93 96 96 96 96 187
 118 118 158 25 25 111 66 66 66 66 66 193 193 193 193 49 49 49 49 211
 211 183 183 93 23 23 187 187 187 187 158 158 11 11 11 66 66 66 66 66
 54 54 54 54 49 49 49 49 49 10 10 10 23 23 187 187 187 187 187 187
 11 11 11 11 66 66 66 66 66 54 54 54 54 49 159 159 159 159 10 10
 152 152 187 187 187 187 187 187 187 11 11 11 11 11 66 66 66 66 54 54
 130 130 130 159 159 159 159 159 152 152 152 152 187 187 187 187 187 187 11 11
 11 11 9 9 66 66 66 54 130 130 130 216 159 159 159 159 71 152 152 152
 152 152 187 187 187 187 187 232 232 232 232 232 9 9 66 66 130 130 130 130
 216 159 159 159 8 8 8 152 152 152 191 191 191 191 191 232 232 232 232 232
 232 9 34 4 17 130 130 130 130 216 159 159 8 8 8 8 152 152 116 116
 191 191 191 191 191 232 232 232 232 232 232 34 34 181 181 181 63 63 63 159
 8 8 8 8 8 8 116 116 116 41 41 41 41 41 232 232 232 232 232 232
 34 4 181 181 181 181 63 63 159 8 8 8 8 8 116 116 116 116 41 41
 41 41 41 232 232 232 232 232 232 34 181 181 181 181 181 181 63 159 8 8
 8 8 61 116 116 116 116 41 41 41 41 41 192 192 192 192 192 192 181 181
 181 181 181 181 181 181 61 61 61 61 61 61 171 171 116 116 41 41 41 41
 97 97 192 192 192 192 192 186 186 181 181 181 181 181 181 61 61 61 61 61
 61 171 171 171 171 171 41 41 97 97 97 97 97 97 97 186 186 186 186 186
 181 181 62 62 56 56 61 61 61 61 61 171 171 171 171 171 171 97 97 97
 97 97 97 186 186 186 186 186 186 186 186 74 74 56 56 56 56 56 61 201
 171 171 171 171 171 171 226 226 226 226 226 226 234 234 186 186 186 186 186 74
 74 74 74 56 56 56 56 166 201 201 203 203 171 171 171 226 226 226 226 226
 226 234 234 234 186 186 186 186 74 74 74 74 56 56 56 56 166 201 201 203
 203 203 203 203 226 226 226 226 226 226 234 234 234 234 186 186 74 74 74 74
 74 56 56 56 56 166 201 201 203 203 203 203 203 226 226 226 226 226 226 234
 234 234 234 155 155 155 74 74 74 56 56 56 56 56 166 134 134 203 203 203
 203 203 226 226 226 226 226 140 234 234 234 14 14 14 14 74 74 74 59 51
 51 51 51 51 134 134 134 134 105 105 105 184 184 184 184 168 140 234 234 14
 14 14 14 14 14 74 59 59 59 51 51 51 51 134 134 134 134 161 161 161
 184 184 184 168 168 168 168 14 14 14 14 14 14 14 59 59 59 59 59 51
 51 51 134 134 134 134 161 161 161 184 184 168 168 168 168 168 14 14 14 14
 14 14 14 59 59 59 59 59 59 51 51 134 134 134 134 161 161 204 204 168
 168 168 168 168 168 168 14 14 14 14 129 129 59 59 59 59 59 59 59 20
 20 20 20 20 96 96 204 204 204 168 168 168 168 168 168 132 132 132 129 129
 129 129 59 59 59 59 59 59 20 20 20 20 20 96 96 204 204 204 204 168
 168 111 111 111 81 81 132 129 129 129 129 59 59 59 59 59 20 20 20 20
 20 96 96 96 96 118 204 204 111 111 111 111 111 81 81 81 81 129 129 129
 59 59 59 59 59 93 93 93 20 96 96 96 96 118 118 118 118 111 111 111
 111 111 81 81 81 81 81 129 129 59 49 49 49 49 183 93 93 93 96 96
 96 96 118 118 118 118 25 25 111 111 111 81 81 81 81 81 81 81 49 49
 49 49 49 211 183 93 93 96 96 96 118 118 118 118 118 25 25 25 111 111
 81 81 81 81 81 81 193 49 49 49 49 49 10 183 119 93 96 96 96 158
 118 118 118 158 25 25 25 66 66 66 81 81 81 81 193 193 49 49 49 49
 49 10 10 119 119 119 23 158 158 158 158 158 158 25 25 25 66 66 66 66
 66 54 54 54 49 49 49 49 49 10 10 10 10 152 152 187 158 158 158 158
 158 158 11 11 11 66 66 66 66 66 54 54 54 49 49 10 10 10 10 10
 10 152 152 152 152 187 158 158 158 158 158 11 11 11 11 66 66 66 66 54
 54 130 130 49 10 10 10 10 10 10 152 152 152 152 187 187 158 187 187 11
 11 11 11 232 232 66 66 66 17 130 130 130 216 159 159 10 10 10 152 152
 152 152 152 152 187 158 187 232 232 232 232 232 232 232 34 34 17 17 17 130
 130 216 159 159 10 10 10 152 152 152 152 152 191 191 191 191 232 232 232 232
 232 232 232 34 34 17 17 17 130 130 216 159 159 8 8 8 8 152 152 116
 116 165 41 41 41 232 232 232 232 232 232 34 34 34 17 17 17 63 63 63
 159 8 8 8 8 8 152 116 116 116 165 41 41 41 41 232 232 232 232 232
 232 34 34 17 181 181 181 63 63 159 8 8 8 8 42 116 116 116 116 165
 41 41 41 41 192 192 192 192 192 192 34 2 2 181 181 181 181 63 61 61
 61 61 61 61 116 116 116 116 116 41 41 41 41 192 192 192 192 192 192 2
 2 2 181 62 181 181 181 61 61 61 61 61 61 61 116 116 116 116 41 41
 41 41 192 192 192 192 192 192 186 186 186 62 62 62 62 62 61 61 61 61
 61 61 61 171 171 171 171 41 41 41 97 97 97 192 192 192 186 186 186 186
 186 62 62 62 62 61 61 61 61 61 61 61 171 171 171 171 171 171 226 226
 226 226 226 226 186 186 186 186 186 186 186 62 62 62 56 56 56 56 61 61
 201 201 171 171 171 171 171 226 226 226 226 226 226 234 234 186 186 186 186 186
 62 74 74 56 56 56 56 56 166 201 201 201 203 171 171 171 226 226 226 226
 226 226 234 234 234 186 186 186 186 74 74 74 56 56 56 56 56 166 201 201
 201 203 203 203 226 226 226 226 226 226 140 234 234 234 234 186 186 186 74 74
 74 56 56 56 56 56 166 201 201 201 203 203 203 226 226 226 226 226 226 140
 234 234 234 234 234 155 186 74 74 74 56 56 56 56 56 166 134 134 134 203
 203 203 226 226 226 226 226 140 140 234 234 234 234 234 14 14 74 74 74 59
 51 51 51 51 51 134 134 134 134 105 105 105 226 226 140 140 140 140 140 234
 14 14 14 14 14 14 74 59 59 51 51 51 51 51 134 134 134 134 134 161
 204 184 168 168 168 168 168 168 14 14 14 14 14 14 14 59 59 59 59 51
 51 51 51 134 134 134 134 134 204 204 204 168 168 168 168 168 168 168 14 14
 14 14 14 129 59 59 59 59 59 51 51 51 134 134 134 134 134 204 204 204
 204 168 168 168 168 168 168 14 14 14 129 129 129 59 59 59 59 59 59 51
 51 20 20 20 20 96 204 204 204 204 168 168 168 168 168 168 81 81 81 129
 129 129 129 59 59 59 59 59 51 20 20 20 20 20 96 204 204 204 204 204
 168 168 168 168 81 81 81 81 81 129 129 129 59 59 55 59 59 178 178 178
 178 178 178 96 204 204 204 204 204 168 111 111 111 81 81 81 81 81 81 129
 129 59 59 55 49 49 178 178 178 178 178 178 96 118 118 118 118 118 25 25
 111 111 81 81 81 81 81 81 81 81 59 49 49 49 49 178 178 178 178 178
 178 96 118 118 118 118 118 25 25 25 111 81 81 81 81 81 81 81 81 49
 49 49 49 49 49 119 119 119 119 119 96 118 118 118 118 118 25 25 25 25
 81 81 81 81 81 81 81 81 49 49 49 49 49 10 119 119 119 119 119 158
 158 158 118 118 158 25 25 25 25 81 81 81 81 81 81 81 49 49 49 49
 49 10 10 10 119 119 119 119 158 158 158 158 158 158 25 25 25 25 66 66
 66 81 81 81 54 49 49 49 49 10 10 10 10 10 119 119 158 158 158 158
 158 158 158 158 25 25 66 66 66 66 66 54 54 217 49 49 10 10 10 10
 10 10 152 152 152 121 158 158 158 158 158 158 158 11 11 65 66 66 66 66
 17 217 217 217 217 10 10 10 10 10 10 152 152 152 121 121 158 158 158 158
 158 232 232 232 232 34 34 34 17 17 217 217 217 217 10 10 10 10 10 152
 152 152 152 121 121 121 158 158 158 232 232 232 232 232 34 34 34 17 17 17
 217 217 217 217 10 10 10 10 152 152 152 152 121 121 121 191 191 232 232 232
 232 232 34 34 34 34 17 17 17 17 217 217 217 10 10 10 10 152 152 152
 116 116 116 116 41 41 232 232 232 232 232 34 34 34 34 17 17 17 17 17
 217 217 8 8 8 42 42 42 116 116 116 116 165 41 41 192 192 192 192 192
 192 34 34 34 17 17 17 17 17 217 61 61 61 61 42 42 42 42 165 116
 165 165 41 41 192 192 192 192 192 192 34 34 2 2 62 62 62 62 62 61
 61 61 61 61 42 42 42 116 116 116 116 41 41 192 192 192 192 192 192 192
 2 2 2 62 62 62 62 62 61 61 61 61 61 61 61 42 116 116 116 116
 41 41 192 192 192 192 192 192 192 186 2 62 62 62 62 62 62 61 61 61
 61 61 61 61 171 171 171 171 116 41 41 97 192 192 192 192 192 186 186 186
 186 186 62 62 62 62 61 61 61 61 61 61 61 61 171 171 171 171 171 226
 226 226 226 226 226 186 186 186 186 186 186 62 62 62 62 56 56 56 61 61
 61 61 201 201 171 171 171 171 226 226 226 226 226 226 234 234 186 186 186 186
 186 62 62 62 56 56 56 56 56 166 201 201 201 201 171 171 226 226 226 226
 226 226 226 234 234 234 186 186 186 186 186 74 74 56 56 56 56 56 166 201
 201 201 201 203 203 226 226 226 226 226 226 140 234 234 234 234 186 186 186 74
 74 74 56 56 56 56 56 166 201 201 201 201 203 203 226 226 226 226 226 140
 140 140 234 234 234 234 186 186 74 74 74 56 56 56 51 51 166 134 134 134
 134 203 203 226 226 226 226 140 140 140 140 234 234 234 234 14 14 74 74 36
 36 51 51 51 51 51 134 134 134 134 134 134 226 226 226 140 140 140 140 140
 234 234 14 14 14 14 14 36 36 36 36 51 51 51 51 134 134 134 134 134
 134 147 147 147 140 140 140 140 140 234 14 14 14 14 14 14 36 36 36 36
 36 51 51 134 134 134 134 134 134 204 204 204 204 168 168 168 168 168 168 14
 14 14 14 14 129 36 36 36 36 36 36 51 51 134 134 134 134 134 204 204
 204 204 168 168 168 168 168 168 81 81 14 129 129 129 36 36 36 36 36 36
 51 51 20 20 20 178 204 204 204 204 204 204 168 168 168 168 168 81 81 81
 81 81 129 36 36 55 55 55 36 36 178 178 178 178 178 178 204 204 204 204
 204 168 168 233 233 81 81 81 81 81 81 81 129 36 55 55 55 36 178 178
 178 178 178 178 178 204 204 204 204 204 204 168 233 111 81 81 81 81 81 81
 81 81 36 55 55 55 178 178 178 178 178 178 178 178 64 64 64 64 64 25
 25 111 111 81 81 81 81 81 81 81 81 36 49 49 49 49 178 178 178 178
 178 178 178 118 118 64 64 158 25 25 25 111 81 81 81 81 81 81 81 81
 81 49 49 49 49 119 119 119 119 119 119 158 158 158 118 158 158 25 25 25
 25 81 81 81 81 81 81 81 81 49 49 49 49 10 10 119 119 119 119 119
 158 158 158 158 158 158 25 25 25 25 99 81 81 81 81 81 81 49 49 49
 49 10 10 10 10 119 119 119 119 158 158 158 158 158 158 158 25 25 25 99
 81 81 81 81 241 241 49 49 10 10 10 10 10 10 10 119 119 119 158 158
 158 158 158 158 158 158 25 65 65 66 81 241 241 241 217 217 217 10 10 10
 10 10 10 10 152 152 121 158 158 158 158 158 158 158 158 65 65 65 34 34
 241 241 217 217 217 217 10 10 10 10 10 175 152 152 121 121 121 158 158 158
 158 158 218 232 232 34 34 34 34 17 217 217 217 217 217 217 10 10 10 10
 175 152 152 121 121 121 121 158 158 218 218 218 232 232 34 34 34 34 17 17
 17 217 217 217 217 10 10 10 10 152 152 152 121 121 121 121 121 218 218 218
 232 232 232 34 34 34 34 82 17 17 17 217 217 217 10 10 10 10 42 42
 42 116 116 116 116 41 41 192 192 192 192 192 34 34 34 34 82 17 17 17
 17 217 217 10 10 10 42 42 42 42 116 116 116 116 41 41 192 192 192 192
 192 34 34 34 34 2 17 17 17 17 217 217 61 61 61 42 42 42 42 165
 116 116 116 41 41 192 192 192 192 192 192 34 34 2 2 2 17 17 17 17
 61 61 61 61 61 42 42 42 42 116 116 116 41 41 192 192 192 192 192 192
 34 2 2 2 62 62 62 62 62 61 61 61 61 61 61 42 42 42 116 116
 116 41 41 192 192 192 192 192 192 34 2 2 62 62 62 62 62 62 61 61
 61 61 61 61 61 42 171 171 171 116 41 41 97 192 192 192 192 192 186 186
 186 186 62 62 62 62 62 61 61 61 61 61 61 61 61 61 171 171 171 171
 226 226 226 226 35 35 186 186 186 186 186 62 62 62 62 62 56 56 61 61
 61 61 61 61 201 171 171 171 171 226 226 226 226 35 35 84 84 186 186 186
 186 62 62 62 62 56 56 56 56 61 61 61 201 201 201 171 171 226 226 226
 226 226 35 35 84 84 234 234 186 186 186 186 74 74 56 56 56 56 56 166
 201 201 201 201 203 101 226 226 226 226 226 35 35 84 84 234 84 186 186 186
 74 74 74 56 56 56 56 56 166 201 201 201 201 203 101 12 12 12 12 140
 140 140 140 84 84 84 84 186 186 74 74 43 36 56 56 51 202 202 134 134
 134 134 146 101 12 12 12 140 140 140 140 140 84 84 84 84 14 14 74 74
 36 36 36 51 202 202 202 134 134 134 134 134 147 147 147 140 140 140 140 140
 140 140 84 84 14 14 14 36 36 36 36 36 36 202 202 202 134 134 134 134
 134 147 147 147 147 140 140 140 140 140 140 14 14 14 14 14 36 36 36 36
 36 36 36 202 202 134 134 134 134 134 147 147 147 147 147 168 168 168 168 168
 14 14 14 14 36 36 36 36 36 36 36 36 36 202 134 134 134 134 204 204
 204 204 204 204 168 168 233 233 233 81 81 14 129 129 36 36 36 36 36 36
 36 36 36 178 134 178 178 204 204 204 204 204 204 233 233 233 233 233 81 81
 81 81 81 36 36 36 55 55 55 36 36 178 178 178 178 178 178 204 204 204
 204 204 233 233 233 233 233 81 81 81 81 81 81 36 36 55 55 55 36 178
 178 178 178 178 178 178 204 204 204 204 204 233 233 233 233 81 81 81 81 81
 81 81 81 36 55 55 55 178 178 178 178 178 178 178 178 64 64 64 64 64
 233 233 233 233 81 81 81 81 81 81 81 81 36 5 55 5 178 178 178 178
 119 119 119 178 64 64 64 64 158 158 233 99 99 99 81 81 81 81 81 81
 81 5 49 49 49 10 119 119 119 119 119 119 158 158 158 158 158 158 158 99
 99 99 99 81 81 81 81 81 81 81 5 10 10 10 10 10 119 119 119 119
 119 158 158 158 158 158 158 158 99 99 99 99 99 81 81 81 241 241 241 49
 10 10 10 10 10 10 119 119 119 119 158 158 158 158 158 158 158 158 99 99
 99 99 81 241 241 241 241 241 49 10 10 10 10 10 10 10 119 119 119 158
 158 158 158 158 158 158 158 65 65 65 65 241 241 241 241 241 241 217 10 10
 10 10 10 10 10 152 121 121 121 158 158 158 158 158 158 158 65 65 65 65
 241 241 241 241 241 217 217 10 10 10 10 175 175 175 152 121 121 121 121 158
 158 218 218 218 218 65 65 34 34 34 241 241 241 217 217 217 217 10 10 10
 175 175 175 152 121 121 121 121 158 218 218 218 218 218 34 34 34 34 34 82
 17 17 217 217 217 217 10 10 10 10 175 152 152 121 121 121 121 121 218 218
 218 218 218 34 34 34 34 34 82 17 17 17 217 217 217 10 10 10 10 42
 42 42 42 121 121 121 121 218 218 218 192 192 192 34 34 34 34 82 17 17
 17 17 217 217 10 222 222 42 42 42 42 42 116 116 116 116 116 192 192 192
 192 192 34 34 34 34 2 17 17 17 17 217 222 222 222 222 42 42 42 42
 42 42 116 116 116 116 192 192 192 192 95 95 34 34 2 2 2 17 17 17
 17 222 222 222 222 61 42 42 42 42 42 116 116 116 116 192 192 192 192 95
 95 95 2 2 2 62 62 62 62 62 61 61 61 61 61 61 42 42 42 42
 116 116 116 116 192 192 192 192 95 95 95 2 2 62 62 62 62 62 62 61
 61 61 61 61 61 61 42 42 42 171 116 116 116 192 192 192 192 95 95 95
 186 186 62 62 62 62 62 62 61 61 61 61 61 61 61 61 61 171 171 101
 12 12 12 12 12 35 35 84 84 84 186 186 62 62 62 62 62 61 61 61
 61 61 61 61 61 201 171 101 101 12 12 12 12 12 35 35 84 84 84 84
 84 186 62 62 62 62 56 56 56 61 61 61 61 201 201 201 101 101 12 12
 12 12 12 35 35 84 84 84 84 84 186 186 62 62 62 43 56 56 56 56
 166 201 201 201 201 101 101 12 12 12 12 12 35 35 84 84 84 84 84 84
 84 74 43 43 43 43 56 56 56 166 201 201 201 146 101 101 12 12 12 12
 12 35 35 84 84 84 84 84 84 84 84 43 43 43 43 202 202 202 202 202
 134 146 146 146 101 12 12 12 12 140 140 140 140 84 84 84 84 84 84 43
 43 43 43 202 202 202 202 202 134 134 134 146 146 147 147 147 12 140 140 140
 140 140 84 84 84 84 84 84 36 36 36 36 36 202 202 202 202 134 134 134
 134 134 147 147 147 147 147 140 140 140 140 84 84 84 84 14 14 36 36 36
 36 36 36 202 202 202 134 134 134 134 147 147 147 147 147 147 233 233 233 233
 233 233 138 138 138 36 36 36 36 36 36 36 36 202 202 202 134 134 147 147
 147 147 147 147 147 233 233 233 233 233 233 138 138 138 36 36 36 36 36 36
 36 36 36 202 178 178 178 178 147 147 204 204 204 233 233 233 233 233 233 233
 138 138 138 138 36 36 36 55 55 55 36 36 178 178 178 178 178 178 204 204
 204 204 233 233 233 233 233 233 138 138 138 138 138 138 36 36 55 55 55 36
 178 178 178 178 178 178 178 204 204 204 204 233 233 233 233 233 233 138 138 138
 138 138 138 138 36 5 55 5 5 178 178 178 178 178 178 178 204 64 64 64
 233 233 233 233 233 99 138 138 138 138 138 138 138 5 5 5 5 5 178 178
 178 178 119 119 75 75 64 64 64 158 233 233 99 99 99 138 138 138 138 138
 138 138 5 5 5 5 5 119 119 119 119 119 119 75 75 158 158 158 158 158
 99 99 99 99 99 138 138 138 138 138 5 5 5 5 10 10 10 119 119 119
 119 119 158 158 158 158 158 158 158 99 99 99 99 99 138 138 138 138 241 241
 5 10 10 10 10 10 10 119 119 119 119 158 158 158 158 158 158 158 99 99
 99 99 99 138 241 241 241 241 241 241 10 10 10 10 10 10 10 162 162 162
 158 158 158 158 158 158 158 158 65 65 65 65 241 241 241 241 241 241 241 10
 10 10 10 10 10 10 152 121 121 162 158 158 158 158 218 218 218 65 65 65
 65 241 241 241 241 241 241 217 10 10 10 10 175 175 175 121 121 121 121 121
 158 158 218 218 218 218 65 65 65 65 241 241 241 241 241 217 217 217 10 10
 10 175 175 175 121 121 121 121 121 158 218 218 218 218 218 65 65 34 34 34
 82 17 17 217 217 217 217 10 10 10 10 175 122 122 121 121 121 121 121 218
 218 218 218 218 218 34 34 34 34 82 17 17 17 217 217 217 10 10 10 10
 122 122 122 122 121 121 121 121 218 218 218 218 218 95 34 34 34 34 82 17
 17 17 17 217 217 222 222 222 122 122 122 122 122 122 116 116 116 218 218 218
 192 95 95 95 34 34 34 2 17 17 17 17 217 222 222 222 222 222 122 122
 122 122 122 116 116 116 116 218 192 192 95 95 95 95 34 2 2 2 17 17
 17 17 222 222 222 222 222 122 122 122 122 122 116 116 116 116 192 192 192 95
 95 95 95 95 2 2 62 62 62 62 62 222 222 222 222 222 61 122 122 122
 122 122 122 122 122 192 192 192 95 95 95 95 95 2 62 62 62 62 62 62
 222 222 222 61 61 61 61 122 122 122 122 122 122 108 192 192 192 95 95 95
 95 95 62 62 62 62 62 62 62 222 222 222 61 61 61 61 61 61 101 101
 101 101 12 12 12 12 35 35 133 84 84 84 84 62 62 62 62 62 222 222
 61 61 61 61 61 61 61 101 101 101 101 12 12 12 12 35 35 133 84 84
 84 84 77 62 62 62 79 43 43 43 61 61 61 61 61 101 101 101 101 101
 12 12 12 12 35 35 133 84 84 84 84 77 77 77 43 43 43 43 43 43
 56 61 61 146 146 101 101 101 101 12 12 12 35 35 35 133 84 84 84 77
 77 77 77 43 43 43 43 43 43 43 202 201 146 146 146 101 101 101 12 12
 12 12 35 35 133 84 84 84 77 77 77 77 43 43 43 43 43 202 202 202
 67 67 146 146 146 101 101 12 12 12 12 140 140 140 84 84 84 77 77 77
 43 43 43 43 43 202 202 202 202 67 67 67 146 146 147 147 147 12 140 140
 140 140 140 84 84 84 77 77 77 43 43 43 43 202 202 202 202 202 67 67
 67 67 67 147 147 147 147 147 235 235 235 235 235 84 84 37 37 37 43 43
 43 36 36 202 202 202 202 67 67 67 67 147 147 147 147 147 147 235 235 235
 235 235 235 138 138 138 37 36 36 36 36 36 36 202 202 202 67 67 67 67
 147 147 147 147 147 147 233 233 233 233 233 138 138 138 138 138 36 36 36 36
 36 36 36 202 202 178 67 178 178 147 147 147 147 147 233 233 233 233 233 233
 138 138 138 138 138 138 36 36 36 36 36 36 36 178 178 178 178 178 204 204
 204 204 204 233 233 233 233 233 233 138 138 138 138 138 138 36 36 5 5 5
 5 178 178 178 178 178 178 178 204 204 204 204 233 233 233 233 233 233 138 138
 138 138 138 138 138 36 5 5 5 5 178 178 178 178 178 178 75 75 204 204
 204 233 233 233 233 99 99 138 138 138 138 138 138 138 5 5 5 5 5 5
 178 178 178 178 75 75 75 75 75 158 158 233 233 99 99 99 138 138 138 138
 138 138 138 5 5 5 5 5 5 119 119 119 119 75 75 75 75 158 158 158
 158 99 99 99 99 99 138 138 138 138 138 5 5 5 5 5 5 10 119 119
 119 119 75 75 75 158 158 158 158 158 99 99 99 99 99 138 138 138 138 241
 5 5 5 5 10 10 10 10 119 119 162 162 75 158 158 158 158 158 158 99
 99 99 99 99 138 241 241 241 241 241 5 10 10 10 10 10 10 10 162 162
 162 162 158 158 158 158 158 158 65 65 65 65 65 65 241 241 241 241 241 241
 10 10 10 10 10 10 10 162 162 162 162 162 158 158 158 218 218 65 65 65