# vtk DataFile Version 2.0
Data set from ImportExport Version 6.5.171.b0b162591
ASCII

DATASET RECTILINEAR_GRID
DIMENSIONS 30 30 30
X_COORDINATES 30 float
-1.250000 1.250000 3.750000 6.250000 8.750000 11.250000 13.750000 16.250000 18.750000 21.250000 23.750000 26.250000 28.750000 31.250000 33.750000 36.250000 38.750000 41.250000 43.750000 46.250000 48.750000 
51.250000 53.750000 56.250000 58.750000 61.250000 63.750000 66.250000 68.750000 71.250000 
Y_COORDINATES 30 float
-1.250000 1.250000 3.750000 6.250000 8.750000 11.250000 13.750000 16.250000 18.750000 21.250000 23.750000 26.250000 28.750000 31.250000 33.750000 36.250000 38.750000 41.250000 43.750000 46.250000 48.750000 
51.250000 53.750000 56.250000 58.750000 61.250000 63.750000 66.250000 68.750000 71.250000 
Z_COORDINATES 30 float
-1.250000 1.250000 3.750000 6.250000 8.750000 11.250000 13.750000 16.250000 18.750000 21.250000 23.750000 26.250000 28.750000 31.250000 33.750000 36.250000 38.750000 41.250000 43.750000 46.250000 48.750000 
51.250000 53.750000 56.250000 58.750000 61.250000 63.750000 66.250000 68.750000 71.250000 
CELL_DATA 24389
SCALARS FeatureIds int 1
LOOKUP_TABLE default
 54 54 136 136 107 107 107 107 107 107 107 107 233 233 233 155 155 155 155 155
 205 205 40 40 40 40 164 164 164 54 54 54 54 107 107 107 107 107 107 107
 196 233 233 233 155 155 155 155 155 155 40 40 40 40 40 164 164 164 54 54
 54 54 107 107 107 107 107 107 107 196 233 233 233 155 155 155 155 155 155 40
 40 40 40 40 164 164 164 54 54 54 54 107 107 107 107 107 107 107 196 233
 233 233 233 155 155 155 155 155 187 187 187 187 40 164 164 164 54 54 54 54
 69 69 69 69 69 69 69 30 233 233 233 233 155 155 234 155 64 187 187 187
 187 187 164 164 164 247 247 247 247 69 69 69 69 69 30 30 30 30 233 233
 233 234 234 234 234 64 64 187 187 187 187 164 164 247 247 247 247 123 69 69
 69 69 69 30 30 30 30 127 127 127 234 234 234 234 64 83 83 83 83 181
 181 247 247 247 247 247 123 123 69 69 30 30 30 30 30 30 127 127 104 63
 63 63 63 63 83 83 83 83 181 181 181 247 247 247 123 123 123 34 34 30
 30 30 30 30 30 115 115 104 63 63 63 63 63 83 83 83 83 181 181 181
 247 70 70 123 123 123 34 34 30 30 30 30 30 115 115 115 115 63 63 63
 63 63 63 83 83 83 181 181 181 247 70 70 70 123 123 34 34 30 30 30
 30 115 115 115 115 115 115 63 63 63 63 63 190 190 190 181 181 70 70 70
 70 70 70 123 34 34 98 30 30 115 115 115 115 115 115 115 63 63 63 63
 190 190 190 190 190 190 70 70 241 241 241 241 98 98 98 98 98 243 243 243
 115 115 115 115 115 63 63 63 177 190 190 190 190 190 190 241 241 241 241 241
 241 98 98 98 98 98 243 243 243 243 115 115 115 115 174 174 177 177 177 160
 190 190 190 241 241 241 118 118 118 118 98 98 98 98 98 243 243 243 243 243
 115 168 168 174 174 160 160 160 160 160 160 160 160 118 118 118 118 118 118 98
 98 98 98 210 210 210 210 210 210 210 168 168 168 160 160 160 160 160 160 160
 160 160 118 118 118 118 118 118 118 102 102 102 210 210 210 210 210 146 146 146
 168 168 160 160 160 160 160 160 160 160 160 118 118 118 118 118 118 102 102 102
 102 210 210 210 210 210 146 146 146 88 88 160 160 160 160 160 160 160 160 160
 118 118 223 223 223 223 102 102 102 102 210 210 210 210 210 146 146 146 88 88
 88 160 160 160 160 160 160 160 199 118 118 223 223 223 223 102 102 102 102 210
 210 210 210 210 210 146 88 82 82 82 160 160 160 160 160 160 199 199 199 118
 223 223 223 46 46 46 46 46 210 210 210 210 210 210 146 82 82 82 82 82
 9 160 160 53 53 53 53 53 53 223 223 223 46 46 46 46 46 134 134 134
 134 134 134 134 82 82 82 82 82 9 9 9 53 53 53 53 53 53 136 136
 46 46 46 46 46 134 134 134 134 134 134 134 114 114 82 82 82 9 9 9
 9 53 53 53 53 53 53 136 136 136 194 194 46 46 134 134 134 134 134 134
 134 114 114 114 239 239 9 9 9 9 53 53 53 53 53 53 136 136 136 136
 194 194 134 134 134 134 134 134 134 134 114 114 114 239 239 9 9 9 9 53
 53 53 53 53 136 136 136 136 136 136 136 22 22 22 22 134 134 134 134 114
 114 114 239 239 9 9 205 205 205 53 53 53 136 136 136 136 136 136 136 136
 191 191 191 191 191 134 134 134 114 114 114 155 205 205 205 205 205 205 205 53
 139 136 136 136 136 136 136 136 107 107 107 191 191 191 191 134 134 155 155 155
 155 205 205 205 205 205 205 205 205 164 136 136 136 136 136 136 136 107 107 107
 107 191 191 191 191 191 155 155 155 155 155 155 205 205 205 205 40 40 164 164
 136 164 136 136 136 107 107 107 107 107 107 191 191 233 233 155 155 155 155 155
 155 205 205 40 40 40 40 164 164 164 164 54 54 54 107 107 107 107 107 107
 107 196 233 233 155 155 155 155 155 155 155 40 40 40 40 40 164 164 164 164
 54 54 107 107 107 107 107 107 107 107 196 233 233 233 155 155 155 155 155 155
 40 40 40 40 40 164 164 164 164 54 54 107 107 107 107 107 107 107 107 107
 233 233 233 155 155 155 155 155 155 187 187 187 187 40 164 164 164 164 247 247
 107 107 69 69 69 69 69 107 127 127 127 127 127 234 234 234 234 234 187 187
 187 187 187 164 164 164 247 247 247 247 69 69 69 69 69 69 30 127 127 127
 127 127 234 234 234 234 234 187 187 187 187 187 164 247 247 247 247 247 247 132
 69 69 69 69 69 30 127 127 127 127 127 234 234 234 234 234 83 83 83 181
 181 181 247 247 247 247 247 247 132 132 132 69 69 30 30 30 127 127 127 104
 234 234 63 63 63 83 83 83 181 181 181 181 247 247 247 123 123 123 132 132
 30 30 30 30 30 30 104 104 104 104 63 63 63 63 83 83 83 181 181 181
 181 247 247 247 123 123 123 123 132 30 30 30 30 30 115 115 104 104 104 63
 63 63 63 63 83 83 181 181 181 181 247 70 70 123 123 123 123 34 30 30
 30 30 115 115 115 104 104 104 63 63 63 63 63 190 190 190 190 190 241 241
 241 241 241 123 123 98 98 98 98 243 243 115 115 115 115 115 104 63 63 63
 63 190 190 190 190 190 190 241 241 241 241 241 241 98 98 98 98 98 243 243
 243 243 115 115 115 115 174 174 174 177 177 190 190 190 190 190 241 241 241 241
 241 241 98 98 98 98 98 243 243 243 243 243 115 168 168 174 174 174 177 177
 177 190 190 190 190 241 241 118 118 118 118 98 98 98 98 98 243 243 243 243
 243 168 168 168 174 174 174 177 177 177 160 160 160 118 118 118 118 118 118 118
 98 98 98 98 210 210 210 210 210 210 168 168 168 168 174 174 160 160 160 160
 160 160 118 118 118 118 118 118 118 98 98 98 98 210 210 210 210 210 146 146
 168 168 168 160 160 160 160 160 160 160 160 118 118 118 118 223 223 223 223 102
 102 210 210 210 210 210 146 146 146 88 88 88 88 160 160 160 160 160 160 160
 160 118 118 223 223 223 223 223 102 102 210 210 210 210 210 146 146 146 88 88
 88 88 88 160 160 160 160 160 160 199 223 223 223 223 223 223 46 46 46 46
 210 210 210 210 210 146 146 88 88 88 88 88 160 160 160 160 53 53 53 100
 223 223 223 223 46 46 46 46 46 210 210 210 210 210 146 146 82 82 82 82
 82 82 9 53 53 53 53 53 53 53 223 223 223 46 46 46 46 46 134 134
 134 134 134 134 134 82 82 82 82 82 9 9 9 53 53 53 53 53 53 223
 223 46 46 46 46 46 46 134 134 134 134 134 134 134 82 82 82 82 9 9
 9 9 53 53 53 53 53 53 136 136 194 194 194 46 46 134 134 134 134 134
 134 134 134 82 82 82 82 9 9 9 9 53 53 53 53 53 231 136 136 136
 194 194 194 46 134 134 134 134 134 134 134 134 114 114 239 239 9 9 9 9
 53 53 53 53 231 231 136 136 136 136 194 194 191 191 191 191 134 134 134 134
 134 114 114 239 9 9 9 205 205 205 53 53 231 231 231 136 136 136 136 136
 107 191 191 191 191 191 134 134 134 134 155 155 155 205 205 205 205 205 205 205
 139 139 139 139 136 136 136 136 136 107 107 191 191 191 191 191 134 134 155 155
 155 155 155 205 205 205 205 205 205 139 139 139 139 136 136 136 136 107 107 107
 107 191 191 191 191 191 191 155 155 155 155 155 155 205 205 205 205 40 40 164
 164 164 164 136 136 107 107 107 107 107 107 107 107 107 230 155 155 155 155 155
 155 155 205 205 40 40 40 40 164 164 164 164 54 54 107 107 107 107 107 107
 107 107 107 230 233 155 155 155 155 155 155 155 40 40 40 40 40 164 164 164
 164 164 54 107 107 107 107 107 107 107 107 107 127 233 155 155 155 155 155 155
 155 40 40 40 40 40 164 164 164 164 164 54 107 107 107 107 107 107 107 107
 127 127 127 127 155 155 155 155 155 155 187 187 187 187 40 164 164 164 247 247
 247 107 107 69 69 69 69 69 69 127 127 127 127 127 234 234 234 234 234 187
 187 187 187 187 164 164 164 247 247 247 247 132 69 69 69 69 69 69 127 127
 127 127 127 234 234 234 234 234 187 187 187 187 187 164 247 247 247 247 247 247
 132 132 132 69 69 69 30 127 127 127 127 127 234 234 234 234 234 83 83 181
 181 181 181 247 247 247 247 247 247 132 132 132 132 69 69 30 127 127 127 127
 104 104 234 234 234 234 83 83 181 181 181 181 247 247 247 247 247 123 132 132
 132 132 30 30 30 127 127 104 104 104 104 104 63 63 63 83 83 181 181 181
 181 181 247 247 247 123 123 123 132 132 132 30 30 30 213 104 104 104 104 104
 104 63 63 63 63 83 181 181 181 181 247 247 247 247 123 123 123 132 132 132
 30 213 213 213 104 104 104 104 104 104 63 63 63 63 190 190 190 190 190 247
 247 241 241 241 123 123 98 98 98 98 213 243 243 115 104 104 104 104 174 174
 174 63 97 190 190 190 190 190 241 241 241 241 241 241 98 98 98 98 98 243
 243 243 243 243 115 104 104 174 174 174 177 177 190 190 190 190 190 241 241 241
 241 241 98 98 98 98 98 98 243 243 243 243 243 168 168 168 174 174 174 177
 177 177 190 190 190 190 241 241 118 118 118 98 98 98 98 98 98 243 243 243
 243 243 168 168 168 174 174 174 174 177 177 160 190 190 118 118 118 118 118 118
 118 98 98 98 98 98 243 243 243 243 168 168 168 168 168 174 174 174 177 160
 160 160 160 118 118 118 118 118 118 118 98 98 98 98 210 210 210 210 210 146
 168 168 168 168 174 174 160 160 160 160 160 160 118 118 118 223 223 223 223 223
 98 98 210 210 210 210 210 210 146 146 168 88 88 88 88 160 160 160 160 160
 160 118 118 118 223 223 223 223 223 223 46 210 210 210 210 210 210 146 146 88
 88 88 88 88 88 160 160 160 160 160 100 100 223 223 223 223 223 46 46 46
 46 210 210 210 210 210 146 146 88 88 88 88 88 88 160 160 53 53 53 100
 100 223 223 223 223 46 46 46 46 46 46 134 134 210 210 146 88 88 88 82
 82 82 9 9 53 53 53 53 53 53 223 223 223 223 46 46 46 46 46 134
 134 134 134 134 134 134 82 82 82 82 82 9 9 9 53 53 53 53 53 53
 169 169 194 194 46 46 46 46 134 134 134 134 134 134 134 82 82 82 82 9
 9 9 9 53 53 53 53 53 53 231 194 194 194 194 194 46 46 134 134 134
 134 134 134 134 134 82 82 82 9 9 9 9 53 53 53 53 231 231 231 136
 194 194 194 194 46 134 134 134 134 134 134 134 134 134 147 147 9 9 9 9
 9 53 53 53 231 231 231 231 136 136 194 194 194 194 191 191 191 134 134 134
 134 134 134 147 147 147 9 9 205 205 205 53 231 231 231 231 139 136 136 136
 194 194 191 191 191 191 191 134 134 134 134 155 147 147 147 205 205 205 205 205
 205 139 139 139 139 139 136 136 136 136 107 107 107 191 191 191 191 134 134 155
 155 155 155 205 205 205 205 205 205 205 139 139 139 139 139 136 136 136 107 107
 107 107 107 191 191 191 191 191 155 155 155 155 155 155 205 205 205 205 40 139
 139 139 139 139 139 136 107 107 107 107 107 107 107 230 230 230 230 155 155 155
 155 155 155 205 205 40 40 40 139 139 139 139 164 54 107 107 107 107 107 107
 107 107 230 230 230 230 155 155 155 155 155 155 155 40 40 40 40 40 164 164
 164 164 164 117 107 107 107 107 107 107 107 230 230 230 230 155 155 155 155 155
 155 155 40 40 40 40 40 164 164 164 117 117 117 107 107 107 107 107 107 107
 230 127 127 127 127 127 155 155 234 234 234 187 187 187 40 40 164 164 164 117
 117 117 117 132 69 69 69 69 69 127 127 127 127 127 127 234 234 234 234 234
 187 187 187 187 187 164 164 117 117 117 117 117 132 132 132 69 69 69 127 127
 127 127 127 127 234 234 234 234 234 234 187 187 187 187 68 68 247 212 212 212
 247 132 132 132 132 69 69 127 127 127 127 127 127 234 234 234 234 234 234 181
 181 181 181 68 68 247 212 212 247 132 132 132 132 132 69 69 127 127 127 127
 127 104 104 234 234 234 234 234 181 181 181 181 68 68 247 247 247 247 132 132
 132 132 132 132 30 127 127 127 104 104 104 104 104 234 63 63 97 181 181 181
 181 68 68 247 247 247 247 123 132 132 132 132 132 213 213 213 104 104 104 104
 104 104 63 63 63 97 97 181 181 181 68 68 247 247 247 123 123 123 132 132
 132 213 213 213 213 213 104 104 104 104 104 63 63 97 97 97 190 190 181 68
 68 247 241 241 241 123 98 98 98 98 213 213 213 213 213 104 104 104 104 174
 174 174 97 97 97 190 190 190 190 241 241 241 241 241 241 98 98 98 98 98
 213 213 243 243 243 104 104 104 174 174 174 174 97 97 190 190 190 190 241 241
 241 241 241 98 98 98 98 98 98 243 243 243 243 243 168 168 168 174 174 174
 174 177 177 190 190 190 190 241 241 118 118 118 98 98 98 98 98 98 243 243
 243 243 168 168 168 168 174 174 174 174 177 177 177 190 190 118 118 118 118 118
 118 118 98 98 98 98 98 243 243 243 243 168 168 168 168 168 174 174 174 174
 160 160 160 160 118 118 118 118 223 223 223 98 98 98 98 210 210 210 210 210
 168 168 168 168 168 174 174 174 160 160 160 160 160 118 118 118 223 223 223 223
 223 98 33 33 33 210 210 210 210 210 168 168 88 88 88 88 88 160 160 160
 160 100 100 100 223 223 223 223 223 223 33 33 33 33 210 210 210 210 210 88
 88 88 88 88 88 88 160 160 160 100 100 100 100 100 223 223 223 223 46 46
 33 33 33 210 210 210 210 210 88 88 88 88 88 88 88 88 9 53 53 100
 100 100 100 223 223 169 46 46 46 46 46 33 33 134 210 210 134 88 88 88
 88 88 88 88 9 9 53 53 53 100 100 100 169 169 169 46 46 46 46 46
 33 134 134 134 134 134 134 88 88 88 82 82 9 9 9 53 53 53 53 53
 100 169 169 169 194 46 46 46 46 134 134 134 134 134 134 134 82 82 82 82
 9 9 9 9 53 53 53 53 53 231 169 169 194 194 194 194 46 46 134 134
 134 134 134 134 134 134 147 147 147 9 9 9 9 53 53 60 60 231 231 231
 169 194 194 194 194 46 46 134 134 134 134 134 134 134 134 147 147 147 147 9
 9 9 9 53 60 231 231 231 231 136 194 194 194 194 172 191 191 134 134 134
 134 134 134 147 147 147 147 147 147 205 205 205 53 231 231 231 231 139 139 136
 172 172 172 172 191 191 191 191 134 134 134 134 147 147 147 147 147 205 205 205
 205 205 139 139 139 139 139 139 136 172 172 172 172 107 191 191 191 191 134 134
 155 155 155 147 147 147 205 205 205 205 139 139 139 139 139 139 139 136 172 172
 172 107 107 107 191 191 191 230 230 155 155 155 155 155 155 205 205 205 205 40
 139 139 139 139 139 139 172 172 172 172 107 107 107 230 230 230 230 230 230 155
 155 155 55 55 55 205 40 40 40 139 139 139 139 164 117 117 107 107 107 107
 107 107 230 230 230 230 230 230 155 155 155 155 155 155 40 40 40 40 40 164
 164 164 117 117 117 117 107 107 107 107 107 230 230 230 230 230 230 155 155 155
 155 155 155 40 40 40 40 40 164 164 164 117 117 117 117 107 107 107 107 107
 230 230 230 127 127 127 127 155 155 234 234 234 187 187 187 40 40 152 152 117
 117 117 117 117 117 132 69 69 69 230 230 127 127 127 127 127 234 234 234 234
 234 234 187 187 187 187 152 117 117 117 117 117 117 132 132 132 132 69 69 127
 127 127 127 127 127 234 234 234 234 234 234 84 84 84 68 68 68 117 117 117
 117 132 132 132 132 132 69 7 127 127 127 127 127 127 234 234 234 234 234 234
 84 84 84 68 68 68 68 212 212 212 132 132 132 132 132 132 7 7 7 127
 127 127 104 104 234 234 234 234 234 84 84 84 68 68 68 68 212 212 212 132
 132 132 132 132 132 7 213 7 127 104 104 104 104 104 234 234 97 97 84 84
 84 68 68 68 68 212 212 212 132 132 132 132 132 132 213 213 213 213 104 104
 104 104 104 45 97 97 97 97 97 181 68 68 68 68 212 212 212 123 132 132
 50 50 213 213 213 213 213 104 104 104 104 45 45 97 97 97 97 97 97 16
 68 68 68 241 241 241 50 50 50 50 50 213 213 213 213 213 213 104 104 104
 174 174 97 97 97 97 97 97 97 16 16 68 241 241 241 50 50 50 50 50
 50 213 213 213 213 213 104 104 104 174 174 174 97 97 97 97 97 16 16 16
 241 241 241 241 50 50 50 50 50 242 213 213 213 243 243 168 168 168 174 174
 174 174 97 97 97 97 16 16 16 12 12 12 12 50 50 50 50 50 242 242
 243 243 243 168 168 168 168 174 174 174 174 174 97 97 97 16 16 12 12 12
 12 12 12 50 50 50 50 242 242 243 243 243 168 168 168 168 168 174 174 174
 174 97 97 97 16 12 12 12 12 12 12 223 98 98 98 33 242 242 210 210
 210 168 168 168 168 168 174 174 174 174 160 160 160 100 100 100 12 223 223 223
 223 223 33 33 33 33 210 210 210 210 210 168 168 88 88 88 88 88 160 160
 160 100 100 100 100 100 223 223 223 223 223 33 33 33 33 33 210 210 210 210
 88 88 88 88 88 88 88 88 161 100 100 100 100 100 100 223 223 223 223 46
 46 33 33 33 33 210 210 210 15 88 88 88 88 88 88 88 161 161 161 100
 100 100 100 100 223 169 169 169 46 46 46 33 33 33 120 120 120 15 88 88
 88 88 88 88 88 161 161 161 53 100 100 100 100 169 169 169 169 46 46 46
 46 33 120 120 120 120 120 120 88 88 88 88 88 88 9 9 60 60 60 100
 100 100 169 169 169 169 46 46 46 46 120 120 120 120 120 120 120 120 88 147
 147 147 147 9 9 60 60 60 60 60 100 169 169 169 194 194 194 46 46 120
 120 120 120 120 120 120 120 147 147 147 147 147 9 9 60 60 60 60 231 231
 231 169 194 194 194 194 46 46 120 120 120 120 120 120 120 120 147 147 147 147
 147 147 9 60 60 60 231 231 231 231 231 194 194 172 172 172 172 120 120 120
 120 120 120 120 147 147 147 147 147 147 147 96 60 60 60 231 231 231 139 139
 172 172 172 172 172 172 191 191 120 120 120 120 120 147 147 147 147 147 147 147
 96 96 96 139 139 139 139 139 139 172 172 172 172 172 172 191 191 191 120 230
 230 230 147 147 147 55 147 147 205 96 96 96 139 139 139 139 139 139 172 172
 172 172 172 172 107 230 230 230 230 230 230 55 55 55 55 55 55 205 205 96
 96 139 139 139 139 47 47 47 172 172 172 172 107 230 230 230 230 230 230 226
 226 226 55 55 55 55 96 96 96 96 96 139 139 139 47 47 47 47 172 107
 107 107 230 230 230 230 230 230 226 226 226 226 55 55 55 96 96 96 96 96
 152 152 152 117 117 117 117 47 107 107 107 230 230 230 230 230 230 226 226 226
 226 55 55 236 154 154 154 154 152 152 152 152 117 117 117 117 117 107 107 107
 230 230 230 230 230 127 127 226 226 234 234 236 236 236 154 154 154 152 152 152
 152 117 117 117 117 117 132 132 108 108 230 230 127 127 127 127 127 234 234 234
 236 236 236 84 154 154 152 152 152 117 117 117 117 117 132 132 132 132 108 7
 7 7 127 127 127 127 234 234 234 234 236 84 84 84 84 68 68 68 117 117
 117 117 117 132 132 132 132 132 7 7 7 7 127 127 127 234 234 234 234 234
 84 84 84 84 68 68 68 68 117 117 117 132 132 132 132 132 132 7 7 7
 7 7 127 104 45 45 234 234 234 84 84 84 84 68 68 68 68 68 212 212
 132 132 132 132 132 7 7 7 7 7 7 104 104 45 45 45 45 97 84 84
 84 84 68 68 68 68 212 212 212 132 132 132 132 132 213 213 213 213 213 104
 104 104 45 45 45 97 97 97 97 97 16 16 68 68 68 212 212 212 50 50
 50 50 50 213 213 213 213 213 213 104 104 45 45 45 97 97 97 97 97 16
 16 16 16 68 170 170 170 50 50 50 50 50 213 213 213 213 213 213 104 104
 45 45 45 97 97 97 97 97 16 16 16 16 16 170 170 170 50 50 50 50
 50 50 213 213 213 213 213 213 104 45 174 174 97 97 97 97 97 16 16 16
 16 170 170 170 170 50 50 50 50 50 242 242 213 213 213 213 168 168 168 174
 174 174 97 97 97 97 16 16 16 16 12 12 12 12 50 50 50 50 50 242
 242 242 242 242 168 168 168 168 188 174 174 174 97 97 97 16 16 16 12 12
 12 12 12 12 50 50 50 242 242 242 242 242 242 168 168 168 168 188 188 174
 174 97 97 97 16 16 12 12 12 12 12 12 12 50 50 242 242 242 242 242
 242 210 168 168 168 168 188 188 188 174 97 97 97 100 100 100 12 12 223 223
 223 223 223 33 33 33 33 242 242 242 15 15 15 168 88 88 88 88 88 161
 161 161 100 100 100 100 100 100 223 223 223 223 33 33 33 33 33 210 15 15
 15 15 88 88 88 88 88 161 161 161 161 100 100 100 100 100 100 223 223 169
 46 33 33 33 33 33 33 15 15 15 15 88 88 88 88 88 161 161 161 161
 100 100 100 100 100 100 169 169 169 46 46 33 33 33 33 120 120 15 15 15
 88 88 88 88 88 161 161 161 161 161 100 100 100 100 169 169 169 169 46 46
 46 33 33 120 120 120 120 120 15 15 88 88 88 147 161 161 161 161 60 60
 100 100 100 169 169 169 169 46 46 46 46 120 120 120 120 120 120 120 120 147
 147 147 147 147 201 201 60 60 60 60 60 100 169 169 169 169 194 46 46 46
 120 120 120 120 120 120 75 75 147 147 147 147 147 201 201 60 60 60 60 60
 231 105 105 105 194 194 194 172 44 44 120 120 120 120 120 120 120 147 147 147
 147 147 147 201 60 60 60 60 231 231 105 105 105 172 172 172 172 172 44 44
 120 120 120 120 120 147 147 147 147 147 147 147 96 96 60 60 231 231 231 139
 105 105 172 172 172 172 172 44 44 44 120 120 120 120 147 147 147 147 147 147
 147 96 96 96 96 139 139 139 139 139 172 172 172 172 172 172 44 44 44 120
 120 120 226 55 55 55 55 55 147 96 96 96 96 96 139 139 139 139 139 172
 172 172 172 172 172 172 230 230 230 230 230 226 55 55 55 55 55 55 96 96
 96 96 96 139 139 139 47 47 47 47 172 172 172 172 230 230 230 230 230 226
 226 226 226 55 55 55 55 96 96 96 96 96 96 139 152 47 47 47 47 47
 47 47 230 230 230 230 230 230 226 226 226 226 226 55 55 55 96 96 96 96
 96 152 152 152 152 47 47 47 47 47 47 230 230 230 230 230 230 226 226 226
 226 226 55 55 236 154 154 154 154 152 152 152 152 152 117 117 47 47 47 108
 108 108 108 230 230 230 226 226 226 226 226 236 236 236 236 154 154 154 152 152
 152 152 117 117 117 117 117 132 108 108 108 108 108 7 7 127 127 226 226 236
 236 236 236 236 154 154 154 152 152 152 152 117 117 117 117 117 132 108 108 108
 108 7 7 7 7 127 127 236 236 236 236 236 236 84 84 84 68 68 68 117
 117 117 117 117 132 132 132 108 108 7 7 7 7 7 127 45 45 45 236 236
 236 84 84 84 84 68 68 68 68 117 117 117 117 132 132 132 132 108 7 7
 7 7 7 7 45 45 45 45 45 236 84 84 84 84 68 68 68 68 68 212
 212 132 132 132 132 132 7 7 7 7 7 7 45 45 45 45 45 45 45 84
 84 84 84 68 68 68 68 212 212 212 170 132 132 132 211 66 66 66 66 66
 7 45 45 45 45 45 45 97 97 97 97 16 16 16 68 68 170 170 170 170
 50 50 50 211 66 66 66 213 213 213 45 45 45 45 45 97 97 97 97 97
 16 16 16 16 16 170 170 170 170 50 50 50 50 213 213 213 213 213 213 45
 45 45 45 45 97 97 97 97 97 16 16 16 16 16 170 170 170 170 50 50
 50 50 242 242 213 213 213 213 213 45 45 45 45 97 97 97 97 97 16 16
 16 16 170 170 170 170 170 50 50 50 50 242 242 242 213 213 213 213 188 188
 188 188 97 97 97 97 97 16 16 16 16 170 12 12 170 170 50 50 50 242
 242 242 242 242 242 242 168 188 188 188 188 188 97 97 97 97 16 16 16 170
 170 12 12 12 170 50 50 50 242 242 242 242 242 242 242 168 188 188 188 188
 188 188 97 97 97 16 16 16 12 12 12 12 12 12 232 232 242 242 242 242
 242 242 242 15 168 188 188 188 188 188 188 97 161 161 2 100 100 100 12 223
 223 223 232 232 232 33 33 242 242 242 242 15 15 15 15 188 188 188 188 188
 161 161 161 161 100 100 100 100 100 223 223 223 232 33 33 33 33 33 242 15
 15 15 15 15 88 88 88 88 161 161 161 161 161 100 100 100 100 100 223 223
 169 33 33 33 33 33 33 15 15 15 15 15 15 88 88 88 161 161 161 161
 161 161 100 100 100 100 100 169 169 169 169 33 33 33 33 33 120 15 15 15
 15 15 88 88 88 161 161 161 161 161 161 100 100 100 100 169 169 169 169 169
 46 33 33 33 120 120 120 92 15 15 15 15 147 147 161 161 161 161 161 161
 60 100 100 100 169 169 169 169 169 46 46 46 120 120 120 120 120 75 75 75
 147 147 147 147 201 201 161 161 60 60 60 60 100 105 105 105 169 169 46 46
 44 44 120 120 120 120 75 75 75 147 147 147 147 201 201 201 60 60 60 60
 60 60 105 105 105 105 194 172 44 44 44 44 120 120 120 75 75 75 147 147
 147 147 147 201 201 96 60 60 60 60 231 105 105 105 105 172 172 172 44 44
 44 44 120 120 120 75 147 147 147 147 147 147 147 96 96 96 60 60 60 231
 105 105 105 172 172 172 172 172 44 44 44 44 120 120 75 147 147 147 147 147
 147 147 96 96 96 96 96 139 139 139 105 47 172 172 172 172 172 44 44 44
 44 230 230 226 55 55 55 55 55 55 96 96 96 96 96 96 139 139 139 47
 47 172 172 172 172 172 44 230 230 230 230 230 226 226 55 55 55 55 55 96
 96 96 96 96 96 139 139 47 47 47 47 47 47 47 166 230 230 230 230 230
 226 226 226 226 226 55 55 251 96 96 96 96 96 96 152 152 47 47 47 47
 47 47 47 47 230 230 230 230 230 226 226 226 226 226 251 251 251 96 96 96
 96 96 152 152 152 152 47 47 47 47 47 47 108 108 230 230 230 230 226 226
 226 226 226 251 251 251 154 154 154 154 152 152 152 152 152 47 47 47 47 47
 47 108 108 108 150 150 150 226 226 226 226 226 236 236 236 154 154 154 154 152
 152 152 152 152 117 117 47 47 47 108 108 108 108 108 150 150 150 226 195 195
 195 236 236 236 236 154 154 154 152 152 152 152 117 117 117 117 47 108 108 108
 108 108 108 7 7 7 7 195 195 195 236 236 236 236 84 154 154 152 152 152
 152 117 117 117 117 132 108 108 108 108 108 7 7 7 7 7 45 45 195 236
 236 236 84 84 84 84 68 68 68 68 117 117 117 117 132 132 108 108 108 7
 7 7 7 7 7 45 45 45 45 45 236 84 84 84 84 68 68 68 68 68
 212 79 79 79 132 108 108 108 7 7 7 7 7 45 45 45 45 45 45 45
 84 84 84 84 68 68 68 68 170 170 79 79 79 211 211 211 211 66 66 66
 66 66 45 45 45 45 45 45 97 97 97 16 16 16 16 68 68 170 170 79
 79 79 211 211 211 211 66 66 66 66 66 45 45 45 45 45 45 97 97 97
 16 16 16 16 16 16 170 170 170 79 79 50 211 211 211 66 66 66 213 213
 45 45 45 45 45 45 97 97 97 16 16 16 16 16 170 170 170 170 170 170
 50 50 211 211 242 242 213 213 213 213 45 45 45 45 97 97 97 97 16 16
 16 16 16 170 170 170 170 170 170 50 50 242 242 242 242 242 213 213 188 188
 188 188 188 97 97 97 97 97 16 16 16 16 170 170 170 170 170 170 50 50
 242 242 242 242 242 242 242 188 188 188 188 188 188 97 97 97 97 16 16 16
 16 170 170 170 170 170 232 232 242 242 242 242 242 242 242 242 188 188 188 188
 188 188 188 97 97 2 2 2 16 170 170 170 170 170 232 232 232 232 242 242
 242 242 242 242 15 15 188 188 188 188 188 188 188 2 2 2 2 27 27 170
 27 170 170 232 232 232 232 242 242 242 242 242 15 15 15 15 188 188 188 188
 161 161 161 161 161 2 27 27 27 27 27 232 232 232 232 232 33 33 242 242
 15 15 15 15 15 124 124 188 161 161 161 161 161 161 161 27 27 27 27 27
 232 232 232 232 33 33 33 33 15 15 15 15 15 15 124 124 161 161 161 161
 161 161 161 100 100 100 27 27 169 169 169 232 33 33 33 33 33 15 15 15
 15 15 15 124 124 161 161 161 161 161 161 161 161 100 100 27 27 169 169 169
 169 46 33 33 33 120 92 92 92 15 15 15 124 147 161 161 161 161 161 161
 161 161 100 100 100 105 105 169 169 169 121 121 33 120 120 120 92 92 75 75
 75 147 147 147 147 201 201 161 161 161 60 60 60 100 105 105 105 105 105 121
 121 44 44 44 120 120 75 75 75 75 147 147 147 147 201 201 201 201 60 60
 60 60 105 105 105 105 105 105 219 44 44 44 44 44 120 75 75 75 75 147
 147 147 147 147 201 201 96 60 20 20 20 105 105 105 105 105 172 172 172 44
 44 44 44 44 120 75 75 75 147 147 147 147 147 147 96 96 96 20 20 20
 105 105 105 105 105 172 172 172 44 44 44 44 44 120 75 75 147 147 147 147
 147 147 147 96 96 96 96 20 20 105 105 47 47 47 172 172 172 166 166 166
 166 166 166 226 226 55 55 55 55 55 55 96 96 96 96 96 96 96 163 47
 47 47 47 47 172 172 166 166 166 166 230 230 226 226 226 226 55 55 55 55
 96 96 96 96 96 96 96 163 47 47 47 47 47 47 47 166 166 166 166 166
 230 226 226 226 178 178 251 251 251 251 96 96 96 96 163 163 163 163 47 47
 47 47 47 47 166 166 150 150 150 150 226 226 178 178 226 251 251 251 251 96
 96 96 163 163 163 163 47 47 47 47 47 47 47 108 108 150 150 150 150 178
 178 178 178 251 251 251 251 251 154 154 154 163 163 163 163 152 47 47 47 47
 47 47 108 108 108 150 150 150 150 178 178 178 195 251 251 251 251 154 154 154
 152 152 152 152 152 47 47 47 47 47 108 108 108 108 108 150 150 150 178 195
 195 195 195 39 39 39 154 154 154 152 152 152 152 117 117 117 47 47 47 108
 108 108 108 108 7 7 7 7 195 195 195 195 236 39 39 154 154 154 152 152
 152 152 117 117 117 117 47 108 108 108 108 108 108 7 7 7 7 195 195 195
 195 39 39 39 84 84 86 86 86 86 68 245 245 245 245 19 19 108 108 108
 108 7 7 7 7 7 45 45 45 45 39 39 39 84 84 86 86 86 86 68
 245 245 79 79 79 19 211 108 108 7 7 7 7 7 45 45 45 45 45 45
 45 84 84 84 86 86 86 68 68 130 79 79 79 79 211 211 211 211 66 66
 66 66 66 45 45 45 45 45 45 45 97 97 16 16 16 16 16 16 79 79
 79 79 79 211 211 211 211 211 66 66 66 66 45 45 45 45 45 45 45 97
 97 16 16 16 16 16 16 170 170 79 79 79 211 211 211 211 211 66 66 66
 66 45 45 45 45 45 45 59 97 97 16 16 16 16 16 170 170 170 170 170
 78 211 211 211 211 211 242 213 213 213 45 45 45 45 45 45 59 97 97 16
 16 16 16 16 170 170 170 170 78 78 78 211 211 242 242 242 242 242 242 188
 188 188 188 188 188 59 97 97 16 16 16 16 16 170 170 170 170 170 78 78
 50 242 242 242 242 242 242 242 188 188 188 188 188 188 188 97 97 2 2 16
 16 170 170 170 170 170 170 232 232 232 242 242 242 242 242 242 242 188 188 188
 188 188 188 188 188 2 2 2 2 2 170 170 170 170 170 232 232 232 232 242
 242 242 242 242 242 15 188 188 188 188 188 188 188 2 2 2 2 2 2 27
 170 27 170 232 232 232 232 232 232 242 242 242 242 15 15 15 124 188 188 188
 188 161 161 2 2 2 2 27 27 27 27 27 232 232 232 232 232 232 242 242
 242 15 15 15 15 124 124 124 188 161 161 161 161 161 2 58 27 27 27 27
 27 232 232 232 232 232 232 33 242 15 15 15 15 15 124 124 124 124 161 161
 161 161 161 161 58 58 27 27 27 27 18 232 232 232 121 33 33 33 15 15
 15 15 15 124 124 124 124 161 161 161 161 161 161 161 58 27 27 27 27 169
 169 121 121 121 121 121 92 92 92 92 92 15 124 124 124 161 161 161 161 161
 161 161 161 27 27 27 105 105 169 169 121 121 121 121 121 120 92 92 92 92
 75 75 124 147 147 147 201 201 161 161 161 161 60 27 27 105 105 105 105 121
 121 121 121 44 44 44 92 92 75 75 75 147 147 147 147 201 201 201 161 20
 20 20 20 20 105 105 105 219 219 219 121 44 44 44 44 44 75 75 75 75
 147 147 147 147 147 201 201 20 20 20 20 20 105 105 105 105 219 219 219 219
 44 44 44 44 44 75 75 75 147 147 147 147 147 147 147 96 96 20 20 20
 20 105 105 105 219 219 219 219 172 166 166 166 166 166 166 75 75 147 147 147
 147 147 147 147 96 96 96 20 20 20 20 47 47 47 47 47 47 166 166 166
 166 166 166 166 166 226 178 55 55 55 55 147 96 96 96 96 96 20 20 163
 47 47 47 47 47 47 47 166 166 166 166 166 166 226 226 178 178 55 55 55
 251 96 96 96 96 96 96 163 163 163 47 47 47 47 47 47 166 166 166 166
 166 166 17 178 178 178 178 251 251 251 251 96 96 96 163 163 163 163 163 47
 47 47 47 47 47 166 166 150 150 150 150 178 178 178 178 251 251 251 251 251
 96 96 96 163 163 163 163 47 47 47 47 47 47 47 47 108 150 150 150 150
 178 178 178 178 251 251 251 251 251 154 154 154 163 163 163 163 47 47 47 47
 47 47 47 108 108 108 150 150 150 150 178 178 178 195 251 251 251 251 154 154
 154 163 163 163 163 47 47 47 47 47 47 108 108 108 108 150 150 150 150 178
 195 195 195 39 39 39 39 154 154 154 152 152 152 152 245 245 245 47 47 47
 108 108 108 108 108 150 150 150 195 195 195 195 195 39 39 39 39 86 86 86
 86 86 152 245 245 245 245 19 19 108 108 108 108 108 7 7 7 7 195 195
 195 39 39 39 39 84 86 86 86 86 86 86 245 245 245 245 19 19 19 108
 108 108 208 208 7 7 7 28 28 28 28 39 39 39 84 86 86 86 86 86
 86 245 245 245 79 19 19 19 19 108 208 208 208 208 7 7 45 45 45 45
 45 45 59 86 86 86 86 86 86 86 130 79 79 79 79 211 211 211 211 208