# vtk DataFile Version 2.0
Data set from ImportExport Version 6.5.171.b0b162591
ASCII

DATASET RECTILINEAR_GRID
DIMENSIONS 30 30 30
X_COORDINATES 30 float
-1.250000 1.250000 3.750000 6.250000 8.750000 11.250000 13.750000 16.250000 18.750000 21.250000 23.750000 26.250000 28.750000 31.250000 33.750000 36.250000 38.750000 41.250000 43.750000 46.250000 48.750000 
51.250000 53.750000 56.250000 58.750000 61.250000 63.750000 66.250000 68.750000 71.250000 
Y_COORDINATES 30 float
-1.250000 1.250000 3.750000 6.250000 8.750000 11.250000 13.750000 16.250000 18.750000 21.250000 23.750000 26.250000 28.750000 31.250000 33.750000 36.250000 38.750000 41.250000 43.750000 46.250000 48.750000 
51.250000 53.750000 56.250000 58.750000 61.250000 63.750000 66.250000 68.750000 71.250000 
Z_COORDINATES 30 float
-1.250000 1.250000 3.750000 6.250000 8.750000 11.250000 13.750000 16.250000 18.750000 21.250000 23.750000 26.250000 28.750000 31.250000 33.750000 36.250000 38.750000 41.250000 43.750000 46.250000 48.750000 
51.250000 53.750000 56.250000 58.750000 61.250000 63.750000 66.250000 68.750000 71.250000 
CELL_DATA 24389
SCALARS FeatureIds int 1
LOOKUP_TABLE default
 212 212 212 88 88 88 88 88 88 88 88 161 161 161 161 229 229 229 106 106
 106 71 71 28 70 70 70 70 70 212 212 238 238 238 238 238 88 88 88 130
 161 161 161 161 229 229 229 229 229 229 71 28 28 70 70 70 70 70 212 212
 128 238 238 238 238 238 96 130 130 161 161 161 161 229 229 229 229 229 229 28
 28 28 28 28 70 70 70 221 128 128 128 128 128 96 96 96 130 130 130 161
 161 161 229 229 229 229 229 79 28 28 28 28 28 69 69 69 221 221 128 128
 128 128 96 96 96 130 130 130 130 161 161 229 229 229 229 79 79 79 28 28
 28 69 69 69 221 221 221 128 128 128 128 96 96 96 130 130 130 130 130 130
 229 229 229 79 79 79 79 28 28 69 69 69 69 221 221 221 128 128 128 96
 96 96 96 130 130 130 130 130 130 229 229 79 79 79 79 79 205 205 69 69
 69 69 221 221 221 221 128 45 251 251 96 96 130 130 130 130 130 31 31 225
 225 225 225 225 205 205 205 205 205 69 221 221 221 45 45 45 45 45 251 96
 96 130 130 130 31 31 31 31 31 225 225 225 225 205 205 205 205 205 205 129
 129 129 45 45 45 45 45 251 96 96 130 130 31 31 31 31 31 100 100 225
 225 205 205 205 205 205 205 129 129 129 129 45 45 45 45 45 45 116 116 116
 130 31 31 31 31 31 100 100 100 205 205 205 205 205 205 129 129 129 129 129
 129 45 45 45 45 217 116 116 116 116 31 31 31 31 100 100 100 100 100 205
 205 205 205 205 129 129 129 129 129 129 45 217 217 217 217 217 116 116 116 116
 31 31 31 100 100 100 100 100 35 35 35 35 129 129 129 129 129 129 129 217
 217 217 217 217 217 116 116 116 116 116 31 100 100 100 100 117 117 35 35 35
 35 129 129 129 129 129 171 171 217 217 217 217 217 217 116 116 116 116 116 116
 112 151 151 117 117 117 117 117 35 32 32 129 129 129 129 171 171 218 217 217
 217 217 217 116 116 116 116 116 112 112 112 151 117 117 117 117 117 32 32 32
 73 174 174 171 171 218 218 132 132 217 217 217 36 36 36 36 137 112 112 112
 112 117 117 117 117 117 32 73 73 73 174 174 171 171 218 218 132 132 217 217
 36 36 36 36 137 137 137 112 112 112 204 204 117 117 117 73 73 73 73 174
 174 171 171 218 218 132 132 132 137 137 137 137 137 137 137 137 112 108 108 204
 204 204 117 117 73 73 73 73 174 174 171 171 218 218 132 132 233 233 137 137
 137 137 137 137 137 108 108 108 108 108 108 175 175 175 73 73 195 195 174 171
 101 101 101 101 233 233 233 233 137 137 137 137 137 108 108 108 108 108 108 108
 175 175 175 195 195 195 195 195 195 101 101 101 101 233 233 233 233 233 233 137
 137 168 108 108 108 108 108 108 108 175 175 175 195 195 195 195 195 195 226 226
 226 226 233 233 233 233 233 233 168 168 168 168 108 108 108 108 108 108 175 175
 175 195 195 195 195 195 195 226 226 226 226 233 233 233 233 233 168 168 168 168
 168 108 108 108 108 108 244 244 175 175 195 195 195 195 195 146 226 226 226 226
 233 233 233 233 168 168 168 168 168 168 168 108 108 108 108 244 244 175 175 195
 195 195 195 146 146 226 226 226 226 88 88 88 88 88 168 168 168 168 168 168
 168 108 108 106 244 244 175 50 50 50 50 50 146 146 226 226 226 88 88 88
 88 88 88 168 168 168 168 168 168 168 106 106 106 106 106 106 50 50 50 50
 50 50 50 226 226 88 88 88 88 88 88 88 88 168 168 168 168 168 168 106
 106 106 106 106 106 50 50 50 50 50 50 50 226 88 88 88 88 88 88 88
 88 88 168 168 168 168 168 106 106 106 106 106 106 106 106 50 50 50 50 50
 50 212 212 212 188 188 188 188 88 88 88 88 161 161 161 199 199 229 229 229
 229 71 71 71 71 70 70 70 60 60 212 212 212 188 188 188 188 188 88 157
 157 161 161 161 199 199 229 229 229 229 71 71 71 28 85 85 85 85 85 212
 212 212 212 188 188 188 96 96 130 130 161 161 161 199 199 229 229 229 229 229
 71 71 28 85 85 85 85 85 212 128 128 128 128 96 96 96 96 130 130 161
 161 161 161 229 229 229 229 229 79 79 28 28 85 85 85 85 85 221 128 128
 128 128 96 96 96 96 96 130 130 161 161 161 229 229 229 229 79 79 79 28
 28 85 85 85 85 221 221 128 128 128 128 96 96 96 96 96 130 130 130 161
 161 229 229 229 79 79 79 79 28 28 85 85 85 69 221 221 128 128 128 128
 96 96 96 96 96 130 130 130 130 130 229 229 79 79 79 79 79 205 205 205
 205 69 69 221 221 221 128 45 45 96 96 96 96 130 130 130 31 31 31 31
 229 79 79 79 79 205 205 205 205 205 205 129 221 221 45 45 45 45 45 251
 96 96 130 130 31 31 31 31 31 31 79 225 225 205 205 205 205 205 205 205
 129 129 129 45 45 45 45 45 45 90 90 130 130 31 31 31 31 31 100 100
 239 205 205 205 205 205 205 205 129 129 129 129 45 45 45 45 45 45 116 116
 116 31 31 31 31 31 100 100 100 100 205 205 205 205 205 205 205 129 129 129
 129 129 45 45 45 217 217 116 116 116 116 31 31 31 31 100 100 100 100 100
 205 205 205 205 205 129 129 129 129 129 129 45 217 217 217 217 217 116 116 116
 116 31 31 31 100 100 100 100 100 205 205 205 205 129 129 129 129 129 129 129
 217 217 217 217 217 217 116 116 116 116 116 110 100 100 100 100 100 100 67 67
 67 35 129 129 129 129 129 129 129 217 217 217 217 217 217 116 116 116 116 116
 112 112 151 151 151 151 117 117 67 67 67 32 129 129 129 129 171 171 217 217
 217 217 217 217 116 116 116 116 116 112 112 112 151 151 151 117 117 67 67 73
 73 73 174 174 174 171 171 218 217 217 217 217 217 36 36 36 116 112 112 112
 112 112 151 151 117 117 117 73 73 73 73 174 174 174 171 171 218 132 132 217
 217 36 36 36 36 137 137 112 112 112 112 112 151 117 117 117 73 73 73 73
 174 174 174 171 171 218 132 132 233 137 137 137 137 137 137 137 112 112 112 112
 108 108 108 175 73 73 73 73 73 174 174 174 171 171 218 132 233 233 233 137
 137 137 137 137 137 112 112 108 108 108 108 108 175 175 175 73 73 73 195 174
 174 171 101 101 233 233 233 233 233 137 137 137 137 137 108 108 108 108 108 108
 108 175 175 175 195 195 195 195 195 195 101 101 101 233 233 233 233 233 233 233
 137 137 168 108 108 108 108 108 108 108 175 175 175 195 195 195 195 195 195 226
 226 226 207 233 233 233 233 233 233 168 168 168 168 108 108 108 108 108 108 175
 175 175 195 195 195 195 195 195 226 226 226 207 233 233 233 233 233 168 168 168
 168 168 108 108 108 108 108 108 175 175 175 195 195 195 195 195 195 226 226 226
 207 207 233 233 233 168 168 168 168 168 168 168 108 108 108 108 108 175 175 175
 50 50 195 195 195 146 226 226 207 207 207 88 88 88 168 168 168 168 168 168
 168 168 108 108 108 108 175 50 50 50 50 50 50 50 50 226 226 207 207 88
 88 88 88 88 168 168 168 168 168 168 168 208 106 106 106 106 50 50 50 50
 50 50 50 50 60 60 88 88 88 88 88 88 88 168 168 168 168 168 168 208
 208 106 106 106 106 106 50 50 50 50 50 50 50 60 60 88 88 88 88 88
 88 88 88 168 168 168 168 208 208 208 106 106 106 106 71 71 50 50 50 50
 50 50 212 212 212 188 188 188 188 188 188 157 157 157 161 199 199 199 229 229
 229 71 71 71 71 71 71 85 85 60 60 212 212 212 188 188 188 188 188 157
 157 157 161 161 199 199 199 229 229 229 229 71 71 71 71 85 85 85 85 85
 212 212 212 212 188 188 188 188 96 157 157 161 161 199 199 199 229 229 229 229
 71 71 71 71 85 85 85 85 85 212 212 212 128 128 96 96 96 96 96 130
 161 161 161 199 199 229 229 229 229 229 71 71 85 85 85 85 85 85 212 128
 128 128 128 96 96 96 96 96 130 161 161 161 161 229 229 229 229 79 79 79
 28 85 85 85 85 85 85 221 128 128 128 128 96 96 96 96 96 130 130 161
 161 161 229 229 229 79 79 79 79 79 85 85 85 85 85 85 221 128 128 128
 128 96 96 96 96 96 130 130 130 130 161 229 229 79 79 79 79 79 205 205
 205 85 85 167 167 221 128 128 45 45 96 96 96 96 96 130 130 31 31 31
 31 79 79 79 79 79 205 205 205 205 205 205 167 167 45 45 45 45 45 45
 96 90 96 96 130 31 31 31 31 31 31 239 239 79 205 205 205 205 205 205
 205 129 129 129 45 45 45 45 45 90 90 90 90 31 31 31 31 31 31 100
 239 239 239 205 205 205 205 205 205 129 129 129 129 45 45 45 45 45 45 90
 116 116 31 31 31 31 31 100 100 100 239 239 205 205 205 205 205 205 129 129
 129 129 129 45 45 45 217 217 116 116 116 116 31 31 31 31 100 100 100 100
 239 205 205 205 205 205 129 129 129 129 129 129 45 217 217 217 217 217 116 116
 116 116 31 110 31 100 100 100 100 100 67 67 67 205 129 129 129 129 129 129
 129 217 217 217 217 217 217 116 116 116 116 110 110 110 100 100 151 151 151 67
 67 67 67 67 129 129 129 129 129 129 217 217 217 217 217 217 116 116 116 116
 116 110 151 151 151 151 151 151 67 67 67 67 67 129 129 129 129 171 95 95
 217 217 217 217 227 227 116 116 116 112 112 112 112 151 151 151 151 67 67 67
 67 73 73 174 174 174 171 95 95 217 217 227 227 227 227 36 36 36 112 112
 112 112 112 151 151 151 67 67 67 73 73 73 174 174 174 171 171 218 95 217
 227 227 227 36 36 36 137 137 112 112 112 112 112 151 151 248 67 73 73 73
 73 174 174 174 171 171 218 95 132 227 227 137 137 137 137 137 137 112 112 112
 112 112 108 108 175 175 73 73 73 73 174 174 174 171 171 218 233 233 233 233
 137 137 137 137 137 137 112 112 112 108 108 108 108 175 175 175 195 73 73 195
 174 174 171 101 101 233 233 233 233 233 137 137 137 137 137 112 112 108 108 108
 108 108 175 175 175 195 195 195 195 195 195 101 101 207 233 233 233 233 233 233
 233 137 137 168 108 108 108 108 108 108 108 175 175 175 195 195 195 195 195 195
 226 207 207 207 207 233 233 233 233 233 168 168 168 168 108 108 108 108 108 108
 175 175 175 195 195 195 195 195 195 207 207 207 207 207 207 233 233 233 168 168
 168 168 168 108 108 108 108 108 108 175 175 175 195 195 195 195 195 195 207 207
 207 207 207 207 207 233 168 168 168 168 168 168 168 108 108 108 108 108 175 175
 50 50 50 50 50 50 50 207 207 207 207 207 207 207 97 168 168 168 168 168
 168 168 208 208 108 108 108 50 50 50 50 50 50 50 50 50 60 207 207 207
 207 207 97 97 97 168 168 168 168 168 168 208 208 208 208 106 50 50 50 50
 50 50 50 50 50 60 60 207 207 207 88 97 97 97 168 168 168 168 168 208
 208 208 208 208 71 71 71 50 50 50 50 50 50 50 60 60 188 188 188 188
 188 97 97 97 168 168 168 168 208 208 208 208 208 71 71 71 71 50 50 50
 50 50 60 212 212 212 188 188 188 188 188 97 157 157 157 157 186 186 186 186
 186 229 71 71 71 71 71 71 60 60 60 60 212 212 212 188 188 188 188 188
 157 157 157 157 161 199 199 186 186 229 229 71 71 71 71 71 85 85 85 85
 60 212 212 212 212 188 188 188 188 157 157 157 157 161 199 199 186 229 229 229
 229 71 71 71 85 85 85 85 85 135 212 212 212 212 188 188 188 96 96 6
 6 14 161 161 199 199 229 229 229 229 71 71 71 85 85 85 85 85 135 135
 212 212 128 128 96 96 96 96 6 6 14 14 161 161 229 229 229 229 79 79
 79 71 85 85 85 85 85 135 135 128 128 128 128 96 96 96 96 6 14 14
 14 249 249 229 229 229 79 79 79 79 79 85 85 85 85 85 135 170 170 128
 128 128 96 96 96 96 6 14 14 14 249 249 229 229 79 79 79 79 79 167
 167 167 167 167 167 167 170 170 170 45 45 96 90 90 90 6 14 14 31 31
 31 31 143 79 79 79 79 205 205 205 167 167 167 167 167 165 165 165 45 45
 90 90 90 90 90 90 31 31 31 31 31 239 239 239 239 239 205 205 205 205
 167 167 167 167 165 165 165 45 45 90 90 90 90 90 90 31 31 31 31 31
 239 239 239 239 239 205 205 205 205 205 129 129 129 129 165 45 45 45 90 90
 90 90 90 90 31 31 31 31 100 100 239 239 239 239 205 205 205 205 205 129
 129 129 129 129 45 45 45 217 90 90 116 116 116 110 110 110 110 100 100 100
 239 239 239 205 205 205 205 129 129 129 129 129 129 45 217 217 217 217 217 116
 116 116 110 110 110 110 100 100 100 239 239 67 67 67 67 129 129 129 129 129
 129 129 95 217 217 217 217 217 116 116 116 110 110 110 110 110 151 151 151 151
 67 67 67 67 67 129 129 129 129 95 95 95 95 217 217 227 227 227 116 116
 110 110 110 110 151 151 151 151 151 67 67 67 67 67 67 129 129 129 95 95
 95 95 95 227 227 227 227 227 116 110 110 110 112 112 151 151 151 151 248 67
 67 67 67 73 174 174 174 95 95 95 95 95 227 227 227 227 227 36 36 112
 112 112 112 112 151 151 151 248 248 67 67 73 73 174 174 174 95 95 95 95
 95 227 227 227 227 137 137 137 112 112 112 112 112 112 151 151 248 248 248 73
 73 73 174 174 174 95 95 95 95 95 227 134 134 137 137 137 137 112 112 112
 112 112 112 108 108 248 237 248 73 73 73 174 174 174 171 95 95 95 233 233
 233 137 137 137 137 137 137 112 112 112 112 108 108 108 237 237 237 195 195 195
 195 174 174 171 207 207 233 233 233 233 233 137 137 137 182 182 112 112 112 108
 108 108 108 237 237 237 195 195 195 195 195 195 207 207 207 207 233 233 233 233
 233 137 182 182 182 182 108 108 108 108 108 108 237 237 237 195 195 195 195 195
 195 207 207 207 207 207 207 233 233 233 233 182 182 182 182 108 108 108 108 108
 108 237 237 237 195 195 195 195 195 195 207 207 207 207 207 207 207 233 233 168
 168 168 168 168 234 234 234 234 108 108 237 237 237 195 195 195 195 195 195 207
 207 207 207 207 207 207 207 168 168 168 168 168 168 168 234 234 234 108 121 237
 237 50 50 50 50 50 50 60 207 207 207 207 207 207 207 97 97 168 168 168
 168 168 208 208 208 208 121 121 121 50 50 50 50 50 50 50 60 60 207 207
 207 207 207 97 97 97 97 168 168 168 168 208 208 208 208 208 121 121 50 50
 50 50 50 50 60 60 60 60 207 207 207 207 97 97 97 97 168 168 168 208
 208 208 208 208 208 71 71 71 50 50 50 50 50 60 60 60 60 207 207 188
 188 97 97 97 97 157 168 168 208 208 208 208 208 208 71 71 71 71 50 50
 50 60 60 60 212 212 212 188 188 188 188 97 157 157 157 157 157 208 186 186
 186 186 186 71 71 71 71 71 71 60 60 60 60 212 212 212 212 188 188 188
 188 157 157 157 157 157 186 186 186 186 186 229 71 71 71 71 71 85 85 85
 85 60 135 212 212 212 188 188 188 188 157 157 157 157 161 186 186 186 186 186
 76 76 71 71 71 85 85 85 85 85 135 135 135 212 212 188 188 188 188 6
 6 6 14 14 249 186 186 186 229 76 76 76 71 71 85 85 85 85 85 135
 135 135 212 212 128 96 96 6 6 6 6 14 14 249 249 249 229 229 54 54
 54 54 71 85 85 85 85 85 135 135 135 135 128 128 96 96 6 6 6 14
 14 14 249 249 249 143 54 54 54 54 54 54 167 167 167 167 167 135 170 170
 170 170 128 96 96 6 6 6 14 14 14 249 249 249 143 143 54 54 54 54
 167 167 167 167 167 167 170 170 170 170 170 170 90 90 90 90 6 6 14 14
 220 220 220 143 143 54 54 54 54 167 167 167 167 167 167 170 165 165 165 165
 45 90 90 90 90 90 6 220 220 220 220 220 239 239 239 239 239 205 167 167
 167 167 167 167 165 165 165 165 165 45 90 90 90 90 90 90 220 220 220 220
 220 239 239 239 239 239 205 205 205 167 167 167 167 165 165 165 165 165 45 90
 90 90 90 90 90 220 220 220 220 220 239 239 239 239 239 205 205 205 205 167
 129 129 129 165 165 165 165 90 90 90 90 90 90 110 110 110 110 110 110 239
 239 239 239 239 239 205 205 205 129 129 129 129 129 165 95 95 217 217 217 90
 116 116 116 110 110 110 110 110 239 239 239 239 124 67 67 67 67 129 129 129
 129 129 95 95 95 95 217 217 217 116 116 116 110 110 110 110 110 151 151 151
 248 67 67 67 67 67 2 129 129 129 95 95 95 95 95 227 227 227 227 227
 116 110 110 110 110 110 151 151 151 248 248 67 67 67 67 2 2 2 2 95
 95 95 95 95 227 227 227 227 227 227 110 110 110 110 112 151 151 151 248 248
 248 67 67 67 2 2 2 2 95 95 95 95 95 227 227 227 227 227 227 110
 110 112 112 112 112 151 151 248 248 248 248 248 2 2 2 2 2 95 95 95
 95 95 227 227 227 227 227 137 137 112 112 112 112 112 112 151 248 248 248 248
 248 2 2 2 2 174 95 95 95 95 95 227 134 134 134 137 137 182 112 112
 112 112 112 112 151 248 237 237 237 73 73 73 2 174 174 95 95 95 95 95
 134 134 134 134 137 182 182 182 112 112 112 112 112 114 237 237 237 237 237 195
 195 195 174 174 95 95 95 95 233 233 134 134 134 137 182 182 182 182 112 112
 112 114 114 114 237 237 237 237 195 195 195 195 195 207 207 207 207 207 233 134
 134 134 182 182 182 182 182 182 108 108 114 114 114 237 237 237 237 195 195 195
 195 195 207 207 207 207 207 207 207 233 233 182 182 182 182 182 234 234 234 234
 114 237 237 237 237 237 195 195 195 195 195 207 207 207 207 207 207 207 207 3
 182 182 182 182 182 234 234 234 234 234 237 237 237 237 80 80 195 195 195 195
 207 207 207 207 207 207 207 3 3 3 3 168 168 168 234 234 234 234 234 121
 121 237 237 50 50 50 50 60 60 60 207 207 207 207 207 207 97 3 3 3
 168 168 208 208 208 208 234 121 121 121 121 50 50 50 50 50 60 60 60 211
 211 211 207 207 97 97 97 3 3 3 168 208 208 208 208 208 121 121 121 121
 50 50 50 50 60 60 60 60 211 211 207 207 207 97 97 97 97 3 3 168
 208 208 208 208 208 208 121 121 71 50 50 50 50 60 60 60 60 60 211 207
 188 188 97 97 97 97 157 157 208 208 208 208 208 208 208 71 71 71 71 50
 50 60 60 60 60 60 212 212 135 188 188 188 97 157 157 157 157 215 186 186
 186 186 186 186 71 71 71 71 71 60 60 60 60 60 135 135 135 135 188 188
 188 157 157 157 157 157 215 186 186 186 186 186 76 76 71 71 71 71 85 85
 60 60 60 135 135 135 135 188 188 188 157 157 157 157 157 157 186 186 186 186
 186 76 76 76 71 71 85 85 85 85 85 135 135 135 135 135 188 188 188 6
 6 6 6 14 14 249 186 186 186 76 76 76 76 76 71 85 85 85 85 85
 135 135 135 135 135 135 96 6 6 6 6 6 14 14 249 249 249 186 54 54
 54 54 54 54 85 85 85 85 85 135 135 135 135 135 135 96 6 6 6 6
 14 14 14 249 249 249 143 54 54 54 54 54 167 167 167 167 167 167 135 170
 170 170 170 170 96 6 6 6 6 14 14 14 249 249 143 143 143 54 54 54
 54 167 167 167 167 167 167 170 170 170 170 170 170 90 90 90 90 6 6 14
 14 220 220 143 143 143 143 54 54 54 167 167 167 167 167 167 170 165 165 165
 165 165 90 90 90 90 90 6 220 220 220 220 220 143 143 239 239 239 167 167
 167 167 167 167 167 165 165 165 165 165 165 90 90 90 90 90 90 220 220 220
 220 220 239 239 239 239 239 124 167 167 167 167 167 167 165 165 165 165 165 165
 90 90 90 90 90 90 220 220 220 220 220 239 239 239 239 124 124 124 205 167
 167 167 167 165 165 165 165 165 90 90 90 90 90 90 110 110 110 110 110 110
 239 239 239 239 124 124 124 67 167 167 129 129 129 165 165 165 95 90 90 90
 224 224 224 224 110 110 110 110 110 239 239 124 124 124 124 67 67 67 2 129
 129 129 95 95 95 95 95 217 224 224 224 224 224 110 110 110 110 110 110 124
 124 124 248 248 67 67 67 2 2 2 2 95 95 95 95 95 227 227 224 224
 224 224 110 110 110 110 110 151 151 151 248 248 248 248 67 67 2 2 2 2
 95 95 95 95 95 95 227 227 224 224 224 110 110 110 110 112 151 151 151 248
 248 248 248 248 2 2 2 2 2 95 95 95 95 95 95 227 227 227 227 227
 110 110 110 112 112 112 151 151 248 248 248 248 248 2 2 2 2 2 95 95
 95 95 95 55 227 134 134 134 182 182 110 112 112 112 112 112 151 248 248 248
 248 248 2 2 2 2 2 95 95 95 55 55 55 134 134 134 137 182 182 182
 112 112 112 112 112 112 248 237 237 237 248 2 2 2 2 2 55 55 55 55
 55 134 134 134 134 182 182 182 182 182 112 112 112 114 114 114 237 237 237 237
 179 179 179 179 179 55 55 55 55 55 20 134 134 134 182 182 182 182 182 182
 112 114 114 114 114 237 237 237 237 179 179 179 179 179 207 207 207 207 20 20
 20 20 20 182 182 182 182 182 182 234 234 114 114 114 237 237 237 237 179 179
 179 179 179 207 207 207 207 207 207 20 20 20 182 182 182 182 182 182 234 234
 234 114 114 237 237 237 80 80 179 179 179 179 207 207 207 207 207 207 207 20
 3 3 182 182 182 182 234 234 234 234 234 121 237 237 237 80 80 80 179 60
 60 207 207 207 207 207 207 207 3 3 3 3 3 182 182 234 234 234 234 121
 121 121 237 237 80 80 50 50 60 60 60 211 211 211 207 207 207 3 3 3
 3 3 168 208 208 208 234 234 121 121 121 121 121 50 50 50 60 60 60 60
 211 211 211 207 207 97 97 3 3 3 3 215 208 208 208 208 208 121 121 121
 121 121 50 50 60 60 60 60 60 60 211 211 160 160 97 97 97 97 3 3
 215 208 208 208 208 208 121 121 121 121 119 119 50 60 60 60 60 60 60 211
 160 160 160 97 97 97 97 157 215 215 208 208 208 208 208 121 121 71 71 71
 119 119 60 60 60 60 60 60 135 160 160 160 160 157 157 157 157 215 215 215
 186 186 186 186 186 76 71 71 71 119 119 185 60 60 60 135 135 135 135 188
 188 188 157 157 157 157 157 215 186 186 186 186 186 76 76 76 71 71 177 119
 185 60 60 60 135 135 135 135 188 188 188 157 157 157 157 157 215 186 186 186
 186 186 76 76 76 71 71 177 85 85 85 135 135 135 135 135 135 135 188 188
 6 6 6 6 14 14 249 186 186 186 186 76 76 76 76 177 177 85 85 85
 135 135 135 135 135 135 135 135 6 6 6 6 14 14 14 249 249 249 186 54
 54 54 54 54 54 167 85 85 85 135 135 135 135 135 135 135 6 6 6 6
 6 14 14 14 249 249 249 143 143 54 54 54 54 54 167 167 167 167 167 135
 170 170 170 170 219 219 6 6 6 6 14 14 14 249 249 143 143 143 143 54
 54 54 167 167 167 167 167 167 170 170 170 170 219 219 90 90 90 6 6 6
 14 14 220 220 143 143 143 143 143 54 54 167 167 167 167 167 167 170 165 165
 165 219 219 90 90 90 90 90 6 220 220 220 220 143 143 143 143 124 124 124
 167 167 167 167 167 167 165 165 165 165 219 219 90 90 90 90 90 90 220 220
 220 220 220 143 239 239 124 124 124 246 167 167 167 167 167 165 165 165 165 219
 219 90 90 90 90 90 90 220 220 220 220 220 239 239 124 124 124 124 246 246
 167 167 167 167 165 165 165 165 219 90 90 90 90 90 90 110 110 110 110 110
 110 239 124 124 124 124 124 124 246 252 252 252 252 165 150 150 150 95 90 90
 90 224 224 224 224 110 110 110 110 110 124 124 124 124 124 124 124 67 252 252
 252 2 150 150 95 95 95 95 181 181 224 224 224 224 110 110 110 110 110 21
 124 124 124 124 248 248 67 252 252 2 2 2 95 95 95 95 95 181 181 224
 224 224 224 110 110 110 110 110 21 21 21 248 248 248 248 248 2 2 2 2
 2 95 95 95 95 95 181 181 224 224 224 224 110 110 110 110 110 21 21 21
 248 248 248 248 248 2 2 2 2 2 95 95 95 95 55 55 181 224 224 224
 224 110 110 110 112 112 21 21 21 248 248 248 248 248 2 2 2 2 2 95
 95 55 55 55 55 55 134 134 224 224 182 182 112 112 112 21 21 21 248 248
 248 248 248 2 2 2 2 2 55 55 55 55 55 55 134 134 134 134 182 182
 182 182 112 112 112 112 21 248 248 237 248 248 2 2 2 2 2 55 55 55
 55 55 55 134 134 134 182 182 182 182 182 182 112 114 114 114 114 237 237 237
 237 179 179 179 179 179 55 55 55 55 55 20 20 20 20 182 182 182 182 182
 182 182 114 114 114 114 237 237 237 237 179 179 179 179 179 61 61 61 169 169
 20 20 20 20 182 182 182 182 182 182 234 114 114 114 114 237 237 237 237 179
 179 179 179 179 61 61 61 169 169 169 20 20 20 182 182 182 182 182 182 234
 234 114 114 114 237 237 237 80 80 179 179 179 179 61 61 207 169 169 169 20
 20 20 3 182 182 182 182 234 234 234 234 121 121 237 237 80 80 80 80 179
 179 179 60 211 211 211 207 207 207 3 3 3 3 3 182 182 234 234 234 234
 121 121 121 121 80 80 80 80 179 60 60 60 211 211 211 211 207 207 3 3
 3 3 3 182 208 208 208 234 234 121 121 121 121 80 119 119 185 60 60 60
 60 211 211 211 160 160 160 3 3 3 3 3 215 208 208 208 208 208 121 121
 121 121 119 119 119 185 60 60 60 60 60 211 160 160 160 160 97 97 3 3
 215 215 215 208 208 208 208 121 121 121 121 119 119 119 185 60 60 60 60 60
 211 160 160 160 160 97 97 97 3 215 215 215 208 208 208 208 121 121 121 121
 119 119 119 185 60 60 60 60 60 135 160 160 160 160 157 157 157 157 215 215
 215 186 186 186 186 186 76 71 71 119 119 119 185 185 60 60 135 135 135 135
 160 160 160 157 157 157 157 215 215 215 186 186 186 186 76 76 76 177 177 177
 177 185 185 60 60 135 135 135 135 135 188 157 157 157 157 157 157 215 186 186
 186 186 186 76 76 76 177 177 177 177 177 177 38 135 135 135 135 135 135 135
 157 157 157 157 157 14 14 249 186 186 186 186 76 76 76 177 177 177 177 177
 177 38 135 135 135 135 135 135 10 6 6 6 6 14 14 14 249 249 143 143
 54 54 54 54 177 177 177 177 177 177 38 135 18 18 18 18 18 10 6 6
 6 6 14 14 14 249 249 143 143 143 143 54 54 54 177 177 167 167 167 167
 18 18 18 18 18 219 219 6 6 6 6 14 14 14 249 249 143 143 143 143
 143 54 54 167 167 167 167 167 167 167 170 170 219 219 219 219 90 90 6 6
 6 14 173 173 220 143 143 143 143 143 54 246 246 246 167 167 167 167 170 165
 165 219 219 219 219 90 90 90 90 173 173 173 220 220 143 143 143 143 124 124
 246 246 246 246 167 167 167 165 165 165 219 219 219 219 90 90 90 90 90 173
 220 220 220 220 143 124 124 124 124 124 246 246 246 246 167 167 165 150 150 150
 219 219 219 90 90 90 90 202 202 220 220 220 220 124 124 124 124 124 124 246
 246 246 246 167 167 150 150 150 150 150 150 90 90 90 90 202 202 202 202 110
 110 110 124 124 124 124 124 124 124 246 252 252 252 252 150 150 150 150 150 150
 181 90 224 224 224 202 202 110 110 110 110 124 124 124 124 124 124 124 252 252
 252 252 252 150 150 150 150 181 181 181 181 224 224 224 224 110 110 110 110 110
 21 21 124 124 124 124 248 252 252 252 252 2 150 150 95 95 181 181 181 181
 224 224 224 224 110 110 110 110 21 21 21 21 124 248 248 248 248 252 252 2
 2 2 95 95 95 55 181 181 181 224 224 224 224 110 110 110 110 21 21 21
 21 248 248 248 248 248 2 2 2 2 2 55 55 55 55 55 181 181 181 224
 224 224 110 110 110 110 21 21 21 21 21 248 248 248 248 2 2 2 2 2
 55 55 55 55 55 55 181 181 134 224 77 77 182 112 112 112 21 21 21 21
 248 248 248 248 2 2 2 2 2 55 55 55 55 55 55 55 134 134 20 182
 182 182 182 182 112 21 159 21 21 248 248 248 248 2 2 2 2 2 102 102
 55 55 55 55 20 20 20 20 182 182 182 182 182 159 159 159 114 114 237 237
 237 237 179 179 179 179 102 102 102 55 55 55 20 20 20 20 20 182 182 182
 182 182 159 159 114 114 114 237 237 237 179 179 179 179 179 179 61 61 61 169
 169 20 20 20 20 20 182 182 182 182 182 159 159 114 114 114 237 237 237 179
 179 179 179 179 179 61 61 61 169 169 169 20 20 20 20 182 182 182 182 182
 234 234 114 114 114 237 237 237 80 179 179 179 179 179 61 61 61 169 169 169
 20 20 20 17 182 182 182 182 182 234 234 234 121 121 121 237 80 80 80 179
 179 179 179 61 61 61 61 169 169 20 20 3 3 3 3 182 182 234 234 234
 234 121 121 121 121 80 80 80 80 179 60 60 60 91 211 211 160 160 160 3
 3 3 3 3 3 208 208 208 234 121 121 121 121 121 119 119 119 185 185 60
 60 60 211 211 211 160 160 160 3 3 3 3 3 215 215 208 208 208 121 121
 121 121 121 119 119 119 185 185 60 60 60 60 211 160 160 160 160 160 162 162
 162 215 215 215 208 208 208 208 121 121 121 121 119 119 119 185 185 60 60 60
 60 160 160 160 160 160 160 162 162 162 215 215 215 215 208 208 208 121 121 121
 121 119 119 119 185 185 60 60 60 60 160 160 160 160 160 160 162 162 162 215
 215 215 215 186 186 186 178 178 178 177 119 119 119 119 185 60 60 135 135 135
 160 160 160 160 157 157 157 157 215 215 215 215 186 186 186 76 76 177 177 177
 177 177 177 38 38 38 135 135 135 135 160 160 157 157 157 157 157 215 215 215
 186 186 186 186 76 76 177 177 177 177 177 177 38 38 38 18 18 18 18 18
 10 10 10 10 157 105 105 105 249 186 187 187 187 76 76 76 177 177 177 177
 177 38 38 38 18 18 18 18 18 10 10 10 10 10 105 105 105 249 249 187
 187 187 54 120 120 177 177 177 177 177 38 38 18 18 18 18 18 18 10 10
 10 10 10 105 105 105 105 249 187 187 187 143 120 120 177 177 177 177 177 38
 38 18 18 18 18 18 18 10 10 10 10 6 105 105 105 173 173 187 187 143
 143 143 120 246 246 246 246 167 167 167 18 18 18 219 219 219 219 192 192 192
 192 173 173 173 173 173 143 143 143 143 143 246 246 246 246 246 246 167 167 18
 165 219 219 219 219 219 192 192 192 192 173 173 173 173 173 143 143 143 143 124
 124 246 246 246 246 246 246 167 68 150 150 219 219 219 219 192 192 192 192 192
 173 173 173 173 173 143 124 124 124 124 246 246 246 246 246 246 246 150 150 150
 150 150 219 219 192 192 192 192 202 202 202 173 173 173 124 124 124 124 124 124
 246 246 246 246 246 150 150 150 150 150 150 150 150 192 192 192 202 202 202 202
 202 110 127 124 124 124 124 124 124 246 246 252 252 252 252 150 150 150 150 150
 181 181 181 224 224 224 202 202 202 202 127 127 124 124 124 124 124 124 124 252
 252 252 252 252 150 150 150 150 181 181 181 181 224 224 224 224 202 202 110 127
 127 127 124 124 124 124 124 124 252 252 252 252 252 150 150 95 181 181 181 181
 181 181 224 224 224 110 110 110 127 127 21 21 21 124 124 248 248 252 252 252
 252 2 2 55 55 55 181 181 181 181 181 224 224 224 224 110 110 110 21 21
 21 21 248 248 248 248 248 2 2 2 2 2 55 55 55 55 181 181 181 181
 181 224 224 77 77 191 191 21 21 21 21 21 248 248 248 248 2 2 2 2
 2 55 55 55 55 55 55 181 181 181 77 77 77 77 77 191 99 21 21 21
 21 248 248 248 248 2 2 2 2 2 102 102 55 55 55 55 55 134 20 77
 77 77 78 78 159 159 159 159 159 159 159 248 248 42 179 179 2 2 102 102
 102 102 55 55 55 20 20 20 20 78 78 78 78 159 159 159 159 159 159 159
 237 42 42 179 179 179 179 102 102 102 102 55 55 20 20 20 20 20 78 78
 78 78 78 159 159 159 159 159 159 237 42 42 179 179 179 179 102 61 61 61
 61 169 20 20 20 20 17 78 78 78 78 78 159 159 159 159 159 237 237 42
 42 179 179 179 179 179 61 61 61 61 169 169 20 20 17 17 17 78 78 78
 78 159 159 159 123 123 237 237 42 179 179 179 179 179 179 61 61 61 61 169
 169 20 17 17 17 17 182 182 182 182 234 123 123 123 123 123 237 80 80 80
 179 179 179 91 91 61 61 61 61 169 20 17 17 17 17 182 201 201 201 234
 123 123 123 121 121 121 80 80 80 80 179 91 91 91 91 91 61 160 160 160
 162 162 162 162 162 201 201 201 208 123 123 121 121 121 121 119 119 119 185 185
 91 91 91 91 91 160 160 160 160 162 162 162 162 162 201 201 201 208 208 121
 121 121 121 121 119 119 119 185 185 185 91 91 91 91 160 160 160 160 162 162
 162 162 215 215 215 201 208 208 208 121 121 121 121 119 119 119 185 185 185 60
 91 91 91 160 160 160 160 162 162 162 162 215 215 215 215 208 208 208 121 121
 121 121 119 119 119 185 185 185 60 74 74 160 160 160 160 160 162 162 162 162
 215 201 201 201 201 201 178 178 178 178 177 177 119 119 119 74 74 74 18 18
 18 160 160 160 160 10 157 157 162 215 201 201 201 201 201 178 178 178 177 177
 177 177 177 177 38 38 38 18 18 18 18 160 10 10 10 10 10 105 105 201
 201 201 201 186 187 120 120 177 177 177 177 177 177 38 38 38 18 18 18 18
 18 10 10 10 10 10 105 105 105 105 187 187 187 187 120 120 120 177 177 177
 177 177 38 38 38 18 18 18 18 18 10 10 10 10 10 105 105 105 105 187
 187 187 187 120 120 120 177 177 177 177 177 38 38 38 18 18 18 18 18 10
 10 10 10 10 105 105 105 105 105 187 187 187 120 120 120 120 177 177 177 177
 38 38 18 18 18 18 18 18 10 10 10 10 10 105 105 105 173 173 187 187
 187 120 120 120 120 246 246 246 246 68 38 18 18 18 18 219 219 192 192 192