# vtk DataFile Version 2.0
Data set from ImportExport Version 6.5.171.b0b162591
ASCII

DATASET RECTILINEAR_GRID
DIMENSIONS 30 30 30
X_COORDINATES 30 float
-1.250000 1.250000 3.750000 6.250000 8.750000 11.250000 13.750000 16.250000 18.750000 21.250000 23.750000 26.250000 28.750000 31.250000 33.750000 36.250000 38.750000 41.250000 43.750000 46.250000 48.750000 
51.250000 53.750000 56.250000 58.750000 61.250000 63.750000 66.250000 68.750000 71.250000 
Y_COORDINATES 30 float
-1.250000 1.250000 3.750000 6.250000 8.750000 11.250000 13.750000 16.250000 18.750000 21.250000 23.750000 26.250000 28.750000 31.250000 33.750000 36.250000 38.750000 41.250000 43.750000 46.250000 48.750000 
51.250000 53.750000 56.250000 58.750000 61.250000 63.750000 66.250000 68.750000 71.250000 
Z_COORDINATES 30 float
-1.250000 1.250000 3.750000 6.250000 8.750000 11.250000 13.750000 16.250000 18.750000 21.250000 23.750000 26.250000 28.750000 31.250000 33.750000 36.250000 38.750000 41.250000 43.750000 46.250000 48.750000 
51.250000 53.750000 56.250000 58.750000 61.250000 63.750000 66.250000 68.750000 71.250000 
CELL_DATA 24389
SCALARS FeatureIds int 1
LOOKUP_TABLE default
 160 160 160 160 26 26 26 158 158 158 205 205 205 205 205 248 248 248 248 36
 36 36 36 36 155 155 155 155 155 160 160 160 160 160 26 158 158 158 158 158
 205 205 205 205 248 248 248 248 36 36 36 36 155 155 155 155 155 155 160 160
 160 160 160 160 158 158 158 158 158 158 205 205 248 248 248 248 248 36 36 36
 36 155 155 155 155 155 155 160 160 160 160 126 141 141 158 158 158 158 158 248
 248 248 248 248 248 248 36 36 181 181 212 212 155 155 155 155 155 160 160 126
 126 141 141 141 158 158 158 158 248 248 248 248 248 49 49 181 181 181 181 212
 212 212 155 155 155 126 126 126 126 126 141 141 141 158 158 158 235 248 248 248
 248 49 49 49 49 49 49 49 212 212 212 212 212 155 31 126 179 179 126 141
 141 141 141 158 235 235 235 248 248 49 49 49 49 49 49 49 49 50 212 212
 212 212 155 31 31 179 179 179 141 141 191 191 191 235 235 235 162 162 49 49
 49 49 49 49 49 49 50 50 212 212 212 212 31 31 179 179 179 179 191 191
 191 17 17 235 235 99 99 49 49 49 49 49 49 49 49 50 50 50 212 212
 59 31 31 179 179 179 191 191 191 191 17 17 17 99 99 99 99 49 49 49
 49 49 49 49 50 50 50 43 229 229 229 229 179 179 179 191 191 191 191 17
 17 17 99 99 99 11 11 11 11 49 86 86 86 43 43 43 43 229 229 229
 229 149 149 149 149 149 191 191 17 17 17 99 99 11 11 11 11 11 11 86
 86 86 43 43 43 229 229 229 229 229 149 149 149 149 149 149 35 35 35 35
 35 35 11 11 11 11 11 11 86 86 86 86 229 229 229 229 229 229 229 229
 149 149 149 149 149 35 35 35 35 35 35 35 11 11 11 11 61 86 86 86
 229 229 229 229 229 229 229 229 149 149 149 149 149 35 35 35 35 35 35 35
 135 135 135 11 61 61 61 86 86 229 229 229 229 229 229 81 81 149 149 149
 241 241 35 35 35 35 35 35 135 135 135 135 135 61 61 61 86 28 28 81
 81 81 81 81 81 81 241 241 241 241 241 241 35 35 35 35 35 135 135 135
 135 135 135 19 19 28 28 28 81 81 81 81 81 81 81 241 241 241 241 241
 241 15 35 35 35 135 135 135 135 135 135 19 19 19 19 33 33 33 81 81
 81 81 81 241 241 241 241 241 241 15 15 15 35 249 135 135 135 135 135 135
 19 19 19 19 33 33 33 152 152 152 81 98 208 208 241 241 241 15 15 15
 15 15 249 139 139 139 139 139 139 19 19 19 19 33 33 152 152 152 152 152
 98 208 208 208 208 20 15 15 15 15 15 172 139 139 139 139 139 139 154 154
 154 154 154 33 152 152 152 152 152 98 208 208 208 208 20 20 15 15 172 172
 172 172 139 139 139 139 139 154 154 154 154 154 154 98 98 98 98 98 98 98
 208 208 208 20 20 15 15 172 172 172 172 139 139 139 139 139 154 154 154 154
 154 238 98 98 98 98 98 98 98 222 208 208 20 20 102 102 172 172 172 172
 172 139 139 139 139 154 154 154 154 238 238 98 98 98 98 98 98 222 222 222
 26 26 26 102 102 172 172 172 172 172 139 139 221 221 221 154 154 238 238 238
 238 98 98 98 98 98 222 222 222 26 26 26 30 30 30 172 172 172 172 172
 221 221 221 221 221 238 238 238 238 238 238 98 98 98 222 222 222 26 26 26
 26 30 30 30 30 172 172 172 221 221 221 221 221 221 238 238 238 238 238 238
 98 98 98 222 222 222 26 26 26 26 30 30 30 30 30 205 205 205 87 221
 221 221 87 246 246 238 238 238 238 238 98 98 222 222 222 26 26 26 26 30
 30 30 30 30 205 205 205 205 87 221 87 87 246 246 238 238 238 238 238 98
 98 160 160 160 26 26 26 26 26 158 158 123 123 205 205 205 205 248 87 87
 36 36 36 36 155 155 155 155 155 155 160 160 160 160 160 26 158 158 158 158
 158 123 205 205 205 205 248 248 248 36 36 36 36 155 155 155 155 155 155 160
 160 160 160 160 160 158 158 158 158 158 158 205 205 205 248 248 248 248 36 36
 36 36 155 155 155 155 155 155 160 160 160 160 160 141 141 158 158 158 158 158
 205 205 248 248 248 248 248 49 49 49 49 212 212 155 155 155 155 155 160 160
 126 126 141 141 141 158 158 158 158 248 248 248 248 248 49 49 49 49 49 49
 212 212 212 155 155 155 126 126 126 126 126 141 141 141 158 158 158 158 248 248
 248 162 49 49 49 49 49 49 49 212 212 212 212 155 155 59 126 126 126 126
 141 141 141 141 158 158 235 235 162 162 162 49 49 49 49 49 49 49 50 212
 212 212 212 59 59 59 179 179 179 179 141 191 191 191 235 235 235 162 162 162
 49 49 49 49 49 49 49 50 50 212 212 212 59 59 59 179 179 179 179 191
 191 191 191 17 235 162 162 162 162 49 49 49 49 49 49 49 50 50 50 43
 59 59 59 59 179 179 179 191 191 191 191 191 17 17 99 99 99 162 49 49
 49 49 49 49 49 43 43 43 43 43 59 229 59 179 179 179 191 191 191 191
 191 17 17 99 99 99 60 49 49 49 49 49 49 49 43 43 43 43 43 229
 229 229 229 149 149 149 149 191 191 191 35 35 132 99 60 60 60 60 61 61
 61 61 43 43 43 43 43 229 229 229 229 229 149 149 149 149 149 191 35 35
 35 35 35 60 60 60 60 61 61 61 61 86 43 43 229 229 229 229 229 229
 229 149 149 149 149 149 35 35 35 35 35 35 60 60 60 60 61 61 61 61
 61 43 229 229 229 229 229 229 229 229 149 149 149 149 149 35 35 35 35 35
 35 135 135 60 61 61 61 61 61 61 229 229 229 229 229 229 229 229 149 149
 149 149 149 35 35 35 35 35 35 135 135 135 135 135 61 61 61 61 28 28
 229 229 229 229 229 81 81 241 241 241 241 241 241 35 35 35 35 35 135 135
 135 135 135 135 61 61 28 28 28 28 229 229 229 229 81 241 241 241 241 241
 241 241 15 35 249 249 249 135 135 135 135 135 135 19 19 33 33 33 33 33
 81 81 81 81 241 241 241 241 241 241 15 15 15 249 249 249 135 135 135 135
 135 19 19 19 33 33 33 33 152 152 152 152 98 208 208 208 241 241 15 15
 15 15 249 249 249 139 139 139 139 139 19 19 19 33 33 33 33 152 152 152
 152 98 208 208 208 208 15 15 15 15 15 249 249 224 139 139 139 139 139 154
 154 154 154 33 33 33 152 152 152 152 98 208 208 208 208 208 15 15 15 172
 172 172 224 139 139 139 139 139 154 154 154 154 154 33 152 152 152 152 98 98
 98 208 208 208 208 32 32 32 172 172 172 172 139 139 139 139 139 154 154 154
 154 238 98 98 98 98 98 98 98 222 222 208 208 208 32 32 32 172 172 172
 172 172 139 139 139 139 154 154 154 238 238 238 238 98 98 98 98 98 222 222
 222 222 26 26 137 172 172 172 172 172 172 139 139 139 87 87 87 238 238 238
 238 238 98 98 98 98 222 222 222 222 26 26 26 26 30 172 172 172 172 172
 172 87 87 87 87 87 238 238 238 238 238 238 98 98 98 222 222 222 222 26
 26 26 26 30 187 30 172 172 172 87 87 87 87 87 87 87 238 238 238 238
 238 98 98 222 222 222 222 26 26 26 26 26 30 187 187 205 205 205 87 87
 87 87 87 87 87 238 238 238 238 238 98 98 222 222 222 222 26 26 26 26
 26 30 187 30 205 205 205 205 87 87 87 87 87 87 238 238 238 238 238 98
 98 222 160 160 160 160 26 26 26 101 101 123 123 123 205 205 205 205 87 87
 87 87 87 34 34 34 34 155 155 155 155 160 160 160 160 160 26 158 158 158
 158 123 123 123 205 205 205 53 53 53 53 36 36 34 155 155 155 155 155 155
 160 160 160 160 160 160 158 158 158 158 123 123 123 205 205 205 53 53 53 53
 53 49 10 155 155 155 155 155 155 155 160 160 160 126 141 141 158 158 158 158
 123 123 123 205 205 53 53 53 53 49 49 10 10 155 155 155 155 155 155 160
 160 126 126 141 141 141 158 158 158 158 123 123 248 53 53 53 49 49 49 49
 49 10 212 155 155 155 155 126 126 126 126 126 141 141 141 158 158 158 158 123
 162 162 162 162 49 49 49 49 49 49 49 212 103 155 155 155 59 59 126 126
 126 141 141 141 141 158 158 158 162 162 162 162 162 49 49 49 49 49 49 49
 103 103 103 155 59 59 59 179 179 179 179 191 191 191 191 191 235 162 162 162
 162 162 49 49 49 49 49 49 103 103 103 103 103 59 59 59 59 179 179 179
 191 191 191 191 191 191 162 162 162 162 162 49 49 49 49 49 49 49 103 103
 103 59 59 59 59 59 179 179 191 191 191 191 191 191 132 162 162 162 162 162
 49 49 49 49 49 49 43 43 43 43 43 59 59 59 59 179 179 191 191 191
 191 191 191 132 132 99 60 60 60 60 60 49 49 49 43 43 43 43 43 43
 229 229 229 55 131 131 131 191 191 191 191 132 132 132 132 60 60 60 60 60
 61 61 61 43 43 43 43 43 43 229 229 229 131 131 131 131 149 149 191 35
 35 35 132 132 60 60 60 60 61 61 61 61 43 43 43 43 229 229 229 229
 229 229 149 149 149 149 149 35 35 35 35 35 35 60 60 60 60 61 61 61
 61 61 43 43 229 229 229 229 229 229 149 149 149 149 149 149 35 35 35 35
 35 35 135 60 60 61 61 61 61 61 61 28 229 229 229 229 229 229 229 149
 149 149 149 149 149 35 35 35 35 35 135 135 135 180 180 61 61 61 61 28
 28 28 229 229 229 229 229 229 241 241 241 241 241 241 35 35 35 249 249 135
 135 135 180 180 61 61 61 28 28 28 28 28 229 229 229 229 241 241 241 241
 241 241 241 15 249 249 249 249 135 135 135 180 180 180 19 33 33 28 28 28
 28 28 229 229 84 84 241 241 241 241 241 15 15 249 249 249 249 135 135 180
 180 180 180 19 33 33 33 33 33 33 152 152 152 84 84 208 241 241 241 15
 15 15 249 249 249 249 224 139 180 180 139 139 19 33 33 33 33 33 152 152
 152 152 98 208 208 208 208 15 15 15 15 249 249 249 224 224 139 139 139 139
 139 154 154 33 33 33 33 152 152 152 152 98 208 208 208 208 32 32 32 32
 32 172 224 224 224 139 139 139 139 139 154 154 2 33 33 152 152 152 152 152
 98 222 208 208 208 32 32 32 32 172 172 172 224 224 139 139 139 139 139 154
 154 2 238 98 98 98 98 98 98 98 222 222 222 222 32 32 32 32 172 172
 172 172 224 139 139 139 139 139 154 154 238 238 238 238 98 98 98 98 222 222
 222 222 222 222 137 137 137 172 172 172 172 172 139 139 87 87 87 87 238 238
 238 238 238 98 98 98 98 222 222 222 222 222 26 137 137 137 172 172 172 172
 172 87 87 87 87 87 87 87 238 238 238 238 238 98 98 222 222 222 222 222
 26 26 101 101 101 187 187 172 172 172 87 87 87 87 87 87 87 238 238 238
 238 238 238 222 222 222 222 222 222 26 26 101 101 101 187 187 187 205 205 87
 87 87 87 87 87 87 238 238 238 238 238 238 222 222 222 222 222 222 26 26
 26 101 101 187 187 123 205 205 205 87 87 87 87 87 87 238 238 238 238 238
 238 222 222 125 160 160 68 185 185 185 101 101 187 123 123 123 123 205 205 87
 87 87 87 87 34 34 34 34 125 125 125 125 125 160 160 160 185 185 185 158
 158 123 123 123 123 123 123 53 53 53 53 53 53 10 34 239 239 239 125 125
 125 160 160 160 160 160 185 185 158 158 123 123 123 123 123 123 53 53 53 53
 53 53 10 10 239 239 239 155 155 155 155 160 160 160 126 141 141 158 158 158
 123 123 123 123 123 53 53 53 53 53 10 10 10 10 239 239 239 155 155 155
 160 126 126 126 141 141 141 158 158 158 123 123 123 53 53 53 53 53 49 10
 10 10 10 239 239 239 155 155 126 126 126 126 126 141 141 141 158 158 158 158
 123 162 162 162 162 53 49 49 49 10 10 10 103 103 103 103 155 59 59 126
 126 126 141 141 141 158 158 158 158 162 162 162 162 162 162 49 49 49 49 10
 103 103 103 103 103 59 59 59 59 179 179 179 191 191 191 191 132 162 162 162
 162 162 162 162 49 49 49 49 49 103 103 103 103 103 59 59 59 59 179 179
 179 191 191 191 191 132 132 162 162 162 162 162 162 49 49 49 49 49 103 103
 103 103 103 59 59 59 59 179 179 191 191 191 191 191 132 132 132 162 162 162
 162 162 49 49 49 49 49 43 43 43 43 43 59 59 59 55 55 55 191 191
 191 191 132 132 132 132 132 162 60 60 60 60 60 49 49 43 43 43 43 43
 43 43 229 55 55 55 131 131 131 191 191 132 132 132 132 132 60 60 60 60
 60 61 61 61 43 43 43 43 43 43 43 229 55 55 131 131 131 131 131 132
 132 132 132 132 132 60 60 60 60 60 61 61 61 91 43 43 43 43 43 229
 229 229 55 131 131 131 131 131 131 132 132 132 132 132 60 60 60 60 61 61
 61 61 91 91 43 43 229 229 229 229 229 131 131 131 131 131 131 35 35 35
 35 132 180 180 60 60 61 61 61 61 61 91 91 91 74 229 229 229 229 229
 131 131 131 131 131 131 35 35 35 35 249 180 180 180 180 61 61 61 61 61
 28 28 28 229 229 229 229 229 84 84 241 241 241 241 241 249 249 249 249 249
 180 180 180 180 180 61 61 61 28 28 28 28 28 229 229 229 84 84 84 84
 241 241 241 241 249 249 249 249 249 180 180 180 180 180 180 92 92 33 33 28
 28 28 28 229 229 84 84 84 84 84 241 241 15 249 249 249 249 249 180 180
 180 180 180 180 92 92 33 33 33 28 28 28 152 152 84 84 84 84 84 84
 15 15 32 249 249 249 249 224 180 180 180 180 180 92 92 33 33 33 33 152
 152 152 152 178 84 84 84 84 32 32 32 32 249 249 249 224 224 224 139 139
 139 139 2 2 2 33 33 33 152 152 152 152 178 178 178 208 208 32 32 32
 32 32 172 224 224 224 224 139 139 139 139 2 2 2 2 2 152 152 152 152
 98 178 178 178 208 208 32 32 32 32 32 172 172 224 224 224 139 139 139 139
 2 2 2 2 2 98 98 98 98 98 222 222 222 222 222 32 32 32 32 172
 172 172 172 224 224 139 139 139 87 2 2 2 238 238 238 98 98 98 98 222
 222 222 222 222 137 137 137 137 137 172 172 172 67 67 87 87 87 87 87 51
 51 238 238 238 98 98 98 222 222 222 222 222 222 137 137 137 137 137 172 172
 172 67 67 87 87 87 87 87 51 51 238 238 238 238 98 222 222 222 222 222
 222 222 137 101 101 101 187 187 240 240 67 87 87 87 87 87 87 51 51 238
 238 238 238 238 222 222 222 222 222 222 26 26 101 101 101 187 187 240 240 240
 87 87 87 194 87 87 51 238 238 238 238 238 238 222 222 222 222 222 222 26
 26 101 101 101 187 187 240 240 240 205 87 87 87 87 87 87 34 34 34 34
 34 125 125 222 125 125 68 68 185 185 185 185 63 123 123 123 123 123 123 87
 87 87 87 87 87 34 34 34 34 125 125 125 125 125 125 160 185 185 185 185
 185 63 123 123 123 123 123 123 53 53 53 53 53 53 34 34 239 239 239 125
 125 125 125 160 160 160 185 185 185 63 63 123 123 123 123 123 123 53 53 53
 53 53 53 10 239 239 239 239 239 125 125 125 160 160 160 63 63 63 63 63
 123 123 123 123 123 123 53 53 53 53 53 10 10 10 239 239 239 239 239 125
 155 160 126 126 126 63 63 63 63 123 123 123 123 123 53 53 53 53 53 53
 10 10 10 10 239 239 239 239 155 59 126 126 126 126 63 63 63 63 158 158
 123 123 162 162 162 53 53 53 10 10 10 10 10 103 103 103 103 103 59 59
 59 126 126 141 151 151 151 151 158 123 162 162 162 162 162 162 49 49 10 10
 10 103 103 103 103 103 59 59 59 59 179 179 151 151 151 151 151 132 132 162
 162 162 162 162 162 49 49 49 10 10 103 103 103 103 103 59 59 59 59 179
 179 151 191 151 191 132 132 132 162 162 162 162 162 162 49 49 49 49 49 103
 103 103 103 103 59 59 59 59 55 55 191 191 191 132 132 132 132 132 216 216
 216 216 60 49 49 49 49 43 43 43 103 103 103 59 59 55 55 55 55 55
 191 132 132 132 132 132 132 132 216 216 60 60 60 60 49 43 43 43 43 43
 43 43 43 55 55 55 55 55 131 131 131 132 132 132 132 132 132 132 60 60
 60 60 61 61 61 91 43 43 43 43 43 43 229 55 55 55 131 131 131 131
 132 132 132 132 132 132 132 60 60 60 60 61 61 61 91 91 43 43 43 43
 43 229 55 55 55 131 131 131 131 132 132 132 132 132 132 60 60 60 60 61
 61 61 61 91 91 91 74 74 43 229 229 55 55 131 131 131 131 131 132 132
 132 132 132 132 180 60 60 61 61 61 61 61 91 91 91 74 74 229 229 229
 55 55 131 131 131 131 131 132 132 132 132 132 180 180 180 180 61 61 61 61
 61 91 91 91 74 74 229 229 84 84 84 84 241 241 241 241 249 249 249 249
 249 180 180 180 180 180 61 61 61 33 33 28 28 28 28 229 229 84 84 84
 84 84 84 241 241 249 249 249 249 249 180 180 180 180 180 180 92 92 33 33
 28 28 28 28 28 229 84 84 84 84 84 84 241 15 249 249 249 249 249 180
 180 180 180 180 180 92 92 92 33 33 28 28 28 152 178 178 84 84 84 84
 84 32 32 249 249 249 249 249 224 180 180 180 180 92 92 92 92 92 33 28
 28 152 152 178 178 178 84 84 84 84 32 32 32 249 249 249 224 224 224 224
 139 139 92 92 2 92 92 92 28 152 152 152 178 178 178 178 84 84 32 32
 32 32 32 249 224 224 224 224 224 139 139 2 2 2 2 2 2 2 152 152
 178 178 178 178 178 178 84 32 32 32 32 32 172 224 224 224 224 224 139 139
 2 2 2 2 2 2 2 98 98 98 178 178 178 178 222 222 137 137 137 137
 137 172 67 67 67 67 67 139 87 87 2 2 2 2 2 2 98 98 98 178
 222 222 222 222 222 137 137 137 137 137 137 67 67 67 67 67 87 87 87 51
 51 51 51 238 238 98 98 98 222 222 222 222 222 222 137 137 137 137 137 137
 240 67 67 67 87 87 87 87 51 51 51 51 34 238 238 98 222 222 222 222
 222 222 68 137 137 137 137 187 240 240 240 240 67 87 87 87 87 87 51 51
 34 34 34 34 34 222 222 222 222 222 222 68 137 101 101 101 187 240 240 240
 240 240 87 87 87 87 87 51 34 34 34 34 34 34 222 222 222 222 222 68
 68 68 101 101 101 187 240 240 240 240 240 87 87 87 87 87 51 34 34 34
 34 34 125 125 125 125 68 68 68 185 185 185 185 63 240 240 240 240 123 123
 219 219 219 219 219 34 34 34 34 34 125 125 125 125 125 68 68 185 185 185
 185 63 63 123 123 123 123 123 123 53 53 53 53 53 10 10 34 239 239 239
 125 125 125 125 125 68 185 185 185 63 63 63 63 123 123 123 123 123 53 53
 53 53 53 10 10 10 239 239 239 125 125 125 125 125 160 63 63 63 63 63
 63 63 123 123 123 123 123 53 53 53 53 53 10 10 10 239 239 239 239 239
 125 125 160 7 63 63 63 63 63 63 63 123 123 123 123 53 53 53 53 53
 10 10 10 10 10 239 239 239 239 125 59 7 7 7 7 63 63 63 63 63
 193 123 193 193 162 53 53 53 53 10 10 10 10 10 103 103 103 103 103 59
 59 7 7 7 151 151 151 151 151 151 193 193 162 162 162 14 14 14 10 10
 10 10 103 103 103 103 103 103 59 59 7 7 7 151 151 151 151 151 151 132
 216 216 216 216 216 14 14 10 10 10 10 103 103 103 103 103 78 78 59 7
 7 7 151 151 151 151 132 132 132 132 216 216 216 216 216 14 14 10 10 10
 103 103 103 103 103 78 78 59 55 55 55 151 151 151 132 132 132 132 132 216
 216 216 216 216 14 14 10 10 103 103 103 103 103 78 78 78 55 55 55 55
 55 151 132 132 132 132 132 132 216 216 216 110 60 60 60 49 43 43 43 43
 43 43 78 78 78 55 55 55 55 55 77 132 132 132 132 132 132 132 110 110
 110 60 60 61 61 91 91 91 43 43 43 43 43 55 55 55 55 55 77 77
 132 132 132 132 132 132 132 110 110 60 60 60 61 61 91 91 91 91 74 74
 43 43 55 55 55 55 55 131 131 132 132 132 132 132 132 132 110 110 60 60
 61 61 61 91 91 91 91 74 74 74 229 55 55 55 55 131 131 131 132 132
 132 132 132 132 120 120 110 60 61 61 61 61 91 91 91 91 74 74 74 74
 55 55 55 55 131 131 131 132 132 132 132 120 120 120 180 180 180 61 61 61
 61 61 91 91 91 74 74 74 74 84 84 84 84 84 84 84 132 132 132 249
 120 120 120 180 180 180 180 61 61 61 33 33 33 115 115 115 115 115 84 84
 84 84 84 84 84 84 249 249 249 249 249 180 180 180 180 180 92 92 92 92
 33 33 115 115 115 115 115 84 84 84 84 84 84 84 15 249 249 249 249 249
 180 180 180 180 180 92 92 92 92 92 33 28 115 115 115 115 178 84 84 84
 84 84 32 32 249 249 249 249 249 224 180 180 180 180 92 92 92 92 92 92
 28 115 115 177 178 178 178 84 84 84 84 32 32 32 249 249 249 224 224 224
 196 196 196 92 92 92 92 92 92 92 115 178 178 178 178 178 178 84 84 84
 32 32 32 32 249 224 224 224 67 196 196 196 2 2 2 2 2 2 2 2
 178 178 178 178 178 178 178 178 32 32 32 137 137 67 67 67 67 67 67 139
 139 2 2 2 2 2 2 2 98 98 178 178 178 178 178 178 137 137 137 137
 137 137 137 67 67 67 67 67 67 87 2 2 2 2 2 2 2 98 98 178
 178 222 222 222 222 137 137 137 137 137 137 111 111 67 67 67 67 87 87 87
 51 51 51 51 51 51 98 98 98 222 222 222 222 222 68 137 137 137 137 137
 111 111 111 67 67 87 87 87 87 51 51 51 51 34 34 34 98 222 222 222
 222 222 68 68 137 137 137 137 137 240 240 240 240 67 87 87 87 87 51 51
 51 34 34 34 34 34 222 222 222 222 68 68 68 68 137 137 137 240 240 240
 240 240 240 87 87 87 87 87 51 34 34 34 34 34 34 222 222 222 68 68
 68 68 68 137 137 137 240 240 240 240 240 240 87 87 87 87 87 51 34 34
 34 34 34 125 125 125 125 68 68 68 68 185 185 185 245 245 240 240 240 123
 219 219 219 219 219 219 106 34 34 34 34 125 125 125 125 125 68 68 68 185
 185 185 63 63 63 123 123 123 123 219 219 219 219 219 219 219 34 34 239 239
 125 125 125 125 125 125 68 68 185 185 63 63 63 63 123 123 123 123 53 53
 219 219 219 219 10 10 239 239 239 239 125 125 125 125 125 68 63 63 63 63
 63 63 63 193 193 193 193 53 53 53 53 53 53 10 10 10 239 239 239 239
 125 125 125 7 7 7 63 63 63 63 63 63 193 193 193 193 193 53 53 53
 53 10 10 10 10 239 239 239 239 239 125 7 7 7 7 7 63 63 151 151
 151 193 193 193 193 193 14 14 14 14 10 10 10 10 10 103 103 103 103 103
 7 7 7 7 7 151 151 151 151 151 193 193 193 193 162 14 14 14 14 10
 10 10 10 103 103 103 103 103 103 78 7 7 7 7 151 151 151 151 151 151
 193 193 216 216 216 14 14 14 14 10 10 10 103 103 103 103 103 78 78 7
 7 7 7 151 151 151 151 132 56 56 56 216 216 216 216 14 14 14 10 10
 10 103 103 103 103 78 78 78 78 7 7 7 151 151 151 132 132 132 56 56
 216 216 216 216 14 14 14 42 10 103 103 103 103 103 78 78 78 78 55 55
 55 55 151 132 132 132 132 132 56 110 110 110 110 110 60 42 42 42 91 43
 43 43 43 78 78 78 55 55 55 55 55 77 132 132 132 132 132 132 110 110
 110 110 110 60 42 42 42 91 91 91 43 43 43 78 78 55 55 55 55 77
 77 132 132 132 132 132 132 110 110 110 110 110 60 61 42 91 91 91 91 74
 74 74 78 55 55 55 55 77 77 77 132 132 132 132 132 132 120 110 110 110
 110 61 61 61 91 91 91 91 74 74 74 74 55 55 55 77 77 77 77 132
 132 132 132 132 120 120 120 120 110 61 61 61 61 91 91 91 91 74 74 74
 74 55 55 55 77 77 77 77 132 132 132 132 120 120 120 120 120 120 61 61
 61 61 91 91 91 115 115 115 115 115 71 71 71 71 71 45 45 132 132 132
 120 120 120 120 120 120 180 180 38 38 38 33 33 115 115 115 115 115 115 71
 71 71 71 71 71 45 45 249 249 120 120 120 120 120 120 180 38 38 38 38
 92 92 115 115 115 115 115 115 84 84 71 71 71 71 71 71 249 249 249 249
 249 180 180 180 196 38 38 38 38 92 92 92 115 115 115 115 177 178 84 84
 84 71 71 71 32 249 249 249 249 249 224 196 196 196 196 38 38 92 92 92
 92 115 115 115 177 177 178 178 84 84 71 71 32 32 32 249 249 249 224 224
 196 196 196 196 38 38 92 2 92 92 115 115 177 177 178 178 178 178 178 71
 71 32 32 32 32 249 67 67 67 196 196 196 196 2 2 2 2 2 2 2
 115 178 178 178 178 178 178 178 178 71 137 137 137 137 67 67 67 67 67 196
 196 196 2 2 2 2 2 2 2 2 178 178 178 178 178 178 178 178 137 137
 137 137 137 137 67 67 67 67 67 196 196 2 2 2 2 2 2 2 2 178
 178 178 178 178 178 68 68 137 137 137 137 137 111 111 111 67 67 67 67 87
 51 51 51 51 51 51 51 51 98 178 178 222 222 68 68 68 137 137 137 137
 137 111 111 111 111 111 67 87 87 87 51 51 51 51 34 34 34 34 222 222
 222 68 68 68 68 68 137 137 137 188 240 111 111 111 111 87 87 87 87 51
 51 51 34 34 34 34 34 222 222 68 68 68 68 68 68 137 137 188 188 240
 240 240 240 240 87 87 87 87 87 51 34 34 34 34 34 34 125 222 68 68
 68 68 68 68 68 137 188 188 240 240 240 240 240 87 219 219 219 87 34 34
 34 34 34 34 125 125 125 163 68 68 68 68 68 185 245 245 245 245 245 245
 245 219 219 219 219 219 219 106 106 106 34 34 125 125 125 125 163 163 163 68
 68 185 63 63 63 245 245 245 245 123 219 219 219 219 219 219 106 106 106 239
 239 125 125 125 125 163 163 163 163 63 63 63 63 63 63 245 193 193 193 88
 88 219 219 219 219 219 10 239 239 239 239 125 125 125 163 163 163 63 63 63
 63 63 63 63 193 193 193 193 88 88 88 219 219 219 10 10 10 239 239 239
 239 125 125 163 7 7 41 41 63 63 63 63 63 193 193 193 193 88 88 88
 53 53 10 10 10 10 239 239 239 239 239 125 7 7 7 7 41 41 151 151
 151 151 193 193 193 193 193 14 14 14 14 10 10 10 10 10 103 103 103 103
 103 7 7 7 7 7 41 151 151 151 151 193 193 193 192 192 14 14 14 14
 14 10 10 10 103 103 103 103 103 103 78 7 7 7 7 7 151 151 151 151
 193 192 192 192 192 14 14 14 14 14 10 10 10 103 103 103 103 103 78 78
 7 7 7 7 151 151 151 151 151 56 56 192 192 216 216 14 14 14 14 10
 10 103 103 103 103 103 78 78 78 78 7 7 7 151 151 151 132 132 56 56
 56 192 110 110 110 14 14 14 42 42 42 103 103 103 103 78 78 78 78 55
 55 55 55 151 132 132 132 132 56 56 110 110 110 110 110 14 42 42 42 42
 42 103 43 103 78 78 78 55 55 55 55 77 77 132 132 132 132 132 132 110
 110 110 110 110 110 42 42 42 42 42 91 43 43 78 78 78 55 55 55 55
 77 77 132 132 132 132 132 132 110 110 110 110 110 110 42 42 42 42 91 91
 74 74 74 78 55 55 55 55 77 77 77 132 132 132 132 132 120 120 110 110
 110 110 110 113 113 113 91 91 91 74 74 74 74 107 55 55 77 77 77 77
 132 132 132 132 120 120 120 120 120 110 110 110 113 113 113 91 91 91 74 74
 74 74 107 77 77 77 77 77 77 132 132 132 120 120 120 120 120 120 120 110
 38 38 38 113 91 91 115 115 115 115 107 177 71 71 71 45 45 45 45 132
 132 120 120 120 120 120 120 120 38 38 38 38 38 38 115 115 115 115 115 115
 177 71 71 71 71 45 45 45 3 3 120 120 120 120 120 120 120 38 38 38
 38 38 38 115 115 115 115 115 177 177 71 71 71 71 71 45 45 3 3 249
 203 203 203 203 203 196 38 38 38 38 38 38 38 115 115 115 177 177 177 71
 71 71 71 71 45 45 3 3 249 203 203 203 203 196 196 138 38 38 38 38
 38 38 115 115 177 177 177 178 178 71 71 71 71 71 32 24 24 203 203 203
 203 196 196 196 138 38 38 38 38 38 38 115 177 177 177 177 178 178 178 71
 71 71 71 32 32 24 64 67 67 138 196 196 196 138 138 2 2 2 2 2
 2 177 177 177 178 178 178 178 47 47 47 47 137 137 137 67 67 67 67 196
 196 196 138 138 2 2 2 2 2 2 177 177 178 178 178 178 178 47 47 47
 137 137 137 137 111 111 111 67 67 196 138 138 138 2 2 2 2 2 39 39
 177 178 178 178 178 47 47 68 137 137 137 137 137 111 111 111 111 111 67 138
 138 51 51 51 51 51 51 51 39 39 178 178 68 68 68 68 68 68 137 137
 137 245 111 111 111 111 111 111 87 87 106 51 51 51 51 34 34 34 34 222
 222 68 68 68 68 68 68 137 137 188 188 245 111 111 111 111 111 87 87 106
 106 106 106 106 34 34 34 34 222 222 68 68 68 68 68 68 68 245 188 188
 188 245 111 111 111 111 219 219 106 106 106 106 106 34 34 34 34 125 222 68
 68 68 68 68 68 68 245 188 188 188 245 245 245 111 219 219 219 219 106 106
 106 106 34 34 34 125 125 125 163 163 163 68 68 68 245 245 245 245 245 245
 245 245 88 219 219 219 219 219 106 106 106 106 106 125 125 125 163 163 163 163
 163 68 68 63 245 245 245 245 245 245 88 88 88 219 219 219 219 106 106 106
 106 239 125 125 125 163 163 163 163 163 68 63 63 63 63 63 245 245 193 88
 88 88 88 219 219 219 219 10 106 239 239 239 125 125 163 163 163 163 163 41
 63 63 63 63 63 193 193 193 88 88 88 88 88 219 112 112 10 10 239 239
 153 153 153 163 163 163 163 41 41 41 41 63 63 63 193 193 193 193 88 88
 88 88 112 112 112 112 10 153 153 153 153 153 153 7 7 7 7 41 41 41
 151 151 151 193 193 193 193 88 88 14 14 14 112 112 112 10 10 103 103 153
 153 153 7 7 7 7 7 41 41 151 151 151 193 193 192 192 192 14 14 14
 14 112 112 112 10 103 103 103 103 103 103 78 7 7 7 7 7 151 151 151
 151 193 192 192 192 192 14 14 14 14 14 112 10 10 103 103 103 103 103 78
 78 7 7 7 7 151 151 151 151 151 56 56 192 192 192 14 14 14 14 14
 14 42 42 103 103 103 103 78 78 78 78 7 7 7 151 151 151 151 132 56
 56 192 192 110 110 110 14 14 14 42 42 42 42 103 103 103 78 78 78 78
 55 55 55 151 151 132 132 132 132 56 56 110 110 110 110 110 9 42 42 42
 42 42 42 43 78 78 78 78 55 55 55 55 77 77 132 132 132 132 132 132
 110 110 110 110 110 9 42 42 42 42 42 42 43 78 78 78 78 55 55 55
 77 77 77 132 132 132 132 132 120 110 110 110 110 110 9 42 42 42 42 113
 113 74 74 74 78 107 55 55 55 77 77 77 77 132 132 132 120 120 120 120
 110 110 110 110 113 113 113 113 113 113 74 74 107 107 107 107 77 77 77 77
 77 132 132 132 132 120 120 120 120 120 110 110 110 113 113 113 113 113 113 74
 107 107 107 107 107 77 77 77 77 45 132 132 132 120 120 120 120 120 120 214
 214 38 38 113 113 113 113 115 115 115 107 107 177 71 71 45 45 45 45 45
 3 3 120 120 120 120 120 120 214 214 38 38 38 38 38 115 115 115 115 115
 107 177 71 71 71 45 45 45 45 3 3 3 120 120 120 120 214 214 214 38
 38 38 38 38 115 115 115 115 177 177 177 71 71 71 71 45 45 45 3 3
 3 203 203 203 203 203 214 38 38 38 38 38 38 38 115 115 177 177 177 177
 71 71 71 71 71 45 45 3 3 3 203 203 203 203 138 138 138 38 38 38
 38 38 38 115 177 177 177 177 177 71 71 71 71 71 45 24 24 24 203 203
 203 203 138 138 138 138 38 38 38 38 38 38 115 177 177 177 177 178 178 71
 71 47 47 47 24 24 24 64 203 203 138 138 138 138 138 138 38 38 38 38
 38 177 177 177 177 177 178 178 47 47 47 47 47 24 24 24 64 111 67 138
 138 138 138 138 138 138 2 2 2 2 39 177 177 177 178 178 47 47 47 47
 47 47 137 137 245 111 111 111 111 138 138 138 138 138 29 29 2 29 29 39
 39 39 178 178 178 47 47 47 47 47 137 137 245 245 245 111 111 111 111 138
 138 138 138 106 51 51 51 51 39 39 39 39 178 68 68 68 68 68 68 137
 245 245 245 245 111 111 111 111 111 138 138 106 106 106 106 106 106 34 39 39
 118 118 68 68 68 68 68 68 245 245 245 245 245 245 111 111 111 111 73 106
 106 106 106 106 106 106 34 34 34 118 118 68 68 68 68 68 68 245 245 245
 245 245 245 245 111 204 204 219 219 106 106 106 106 106 106 34 34 34 118 118
 68 68 68 68 68 68 245 245 245 245 245 245 245 245 204 219 219 219 219 106
 106 106 106 106 34 34 125 125 125 163 163 163 163 68 68 245 245 245 245 245
 245 245 245 88 88 219 219 219 106 106 106 106 106 106 106 125 163 163 163 163
 163 163 68 68 245 245 245 245 245 245 245 88 88 88 88 219 219 219 106 106
 106 106 153 153 153 163 163 163 163 163 163 163 63 63 63 63 245 245 245 88
 88 88 88 88 88 219 112 112 106 106 153 153 153 153 153 163 163 163 163 163
 41 41 41 41 63 63 193 193 193 88 88 88 88 88 112 112 112 112 112 153
 153 153 153 153 163 163 163 163 41 41 41 41 41 63 63 193 193 193 88 88
 88 88 88 112 112 112 112 112 153 153 153 153 153 153 163 7 7 41 41 41
 41 41 151 151 193 193 193 161 88 88 88 112 112 112 112 112 112 153 153 153
 153 153 153 7 7 7 7 41 41 41 151 151 151 193 192 192 192 192 147 147
 147 112 112 112 112 112 40 40 40 153 153 153 7 7 7 7 7 41 151 151
 151 151 151 192 192 192 192 147 147 147 147 112 112 112 112 40 40 40 40 40
 78 78 7 7 7 159 159 151 151 151 151 56 192 192 192 192 147 147 147 147
 147 112 112 112 40 40 40 40 40 78 78 78 7 159 159 159 159 151 151 132
 56 56 192 192 192 110 9 9 9 9 42 42 42 42 40 40 40 78 78 78
 78 159 159 159 159 159 159 132 132 132 56 192 110 110 110 9 9 9 42 42
 42 42 42 42 40 78 78 78 78 55 159 159 159 159 159 132 132 132 132 250
 250 110 110 110 110 9 9 42 42 42 42 42 42 16 16 78 78 107 55 55
 55 77 77 77 132 132 132 250 250 250 120 110 110 110 9 9 113 113 113 113
 113 113 113 107 107 107 107 107 55 77 77 77 77 77 132 132 250 250 120 120
 120 110 110 9 9 113 113 113 113 113 113 107 107 107 107 107 107 77 77 77
 77 77 77 132 132 250 120 120 120 120 120 110 9 9 113 113 113 113 113 113
 107 107 107 107 107 107 45 45 45 45 45 3 3 3 120 120 120 120 120 214
 214 214 214 113 113 113 113 113 113 107 107 107 107 107 107 45 45 45 45 45