# vtk DataFile Version 2.0
Data set from ImportExport Version 6.5.171.b0b162591
ASCII

DATASET RECTILINEAR_GRID
DIMENSIONS 30 30 30
X_COORDINATES 30 float
-1.250000 1.250000 3.750000 6.250000 8.750000 11.250000 13.750000 16.250000 18.750000 21.250000 23.750000 26.250000 28.750000 31.250000 33.750000 36.250000 38.750000 41.250000 43.750000 46.250000 48.750000 
51.250000 53.750000 56.250000 58.750000 61.250000 63.750000 66.250000 68.750000 71.250000 
Y_COORDINATES 30 float
-1.250000 1.250000 3.750000 6.250000 8.750000 11.250000 13.750000 16.250000 18.750000 21.250000 23.750000 26.250000 28.750000 31.250000 33.750000 36.250000 38.750000 41.250000 43.750000 46.250000 48.750000 
51.250000 53.750000 56.250000 58.750000 61.250000 63.750000 66.250000 68.750000 71.250000 
Z_COORDINATES 30 float
-1.250000 1.250000 3.750000 6.250000 8.750000 11.250000 13.750000 16.250000 18.750000 21.250000 23.750000 26.250000 28.750000 31.250000 33.750000 36.250000 38.750000 41.250000 43.750000 46.250000 48.750000 
51.250000 53.750000 56.250000 58.750000 61.250000 63.750000 66.250000 68.750000 71.250000 
CELL_DATA 24389
SCALARS FeatureIds int 1
LOOKUP_TABLE default
 249 249 184 184 184 184 184 135 135 187 187 187 22 144 144 144 144 144 144 144
 144 232 232 138 138 138 138 249 249 249 112 184 184 184 184 184 135 135 187 187
 22 22 22 236 236 236 236 236 232 232 232 232 232 138 138 138 215 215 112 112
 112 184 184 184 184 135 187 187 22 22 22 22 236 236 236 67 236 232 232 232
 232 232 232 50 50 215 215 112 112 112 184 184 184 184 187 187 22 22 22 22
 22 22 236 67 67 67 232 232 232 232 50 50 50 50 215 215 112 112 112 184
 184 184 184 187 22 22 22 22 22 22 22 236 67 67 236 232 232 232 50 50
 50 50 50 50 215 112 112 139 139 139 139 184 22 22 22 22 22 22 22 22
 22 148 148 148 232 232 50 50 50 50 50 50 50 50 112 139 139 139 139 139
 29 29 29 22 22 22 22 22 22 208 148 148 148 148 232 50 50 50 50 50
 50 50 50 139 139 139 139 139 139 29 29 29 29 22 22 22 22 208 208 148
 148 148 148 148 50 50 50 50 50 50 50 216 139 139 139 139 204 204 29 29
 29 29 29 22 22 208 208 208 208 148 148 148 148 50 50 50 50 50 216 216
 216 204 204 204 204 204 204 204 29 180 180 180 22 208 208 208 208 208 208 208
 208 208 85 85 85 50 216 216 216 216 216 204 204 204 204 204 204 204 180 180
 180 180 208 208 208 208 208 208 208 208 208 85 85 85 216 216 216 216 216 216
 204 204 204 204 204 204 204 180 180 40 40 40 208 208 208 208 208 208 243 243
 243 85 85 216 216 216 216 216 216 204 204 204 204 204 204 204 24 40 40 40
 40 40 208 208 125 125 243 243 243 243 243 85 216 216 216 216 216 130 204 204
 204 204 204 204 204 24 40 40 40 40 40 208 125 125 125 243 243 243 243 243
 88 140 130 130 130 130 130 204 204 204 204 204 204 143 24 40 40 40 40 40
 208 125 125 125 243 243 243 243 88 88 140 140 140 130 130 130 55 204 204 204
 204 143 143 143 24 40 40 40 40 208 125 235 235 243 243 243 243 88 88 140
 140 140 130 130 55 55 55 55 38 143 143 143 143 143 24 24 157 134 134 235
 235 235 145 145 145 145 88 88 140 140 140 140 130 55 55 55 38 38 38 224
 224 224 224 224 157 157 134 134 134 134 145 145 145 145 145 88 88 140 140 140
 55 55 55 55 55 38 38 38 224 224 224 224 224 11 157 134 134 134 134 134
 145 145 145 145 145 160 160 140 55 55 55 55 55 55 38 38 38 224 224 224
 224 11 11 157 134 134 134 134 134 145 145 145 145 65 160 160 140 55 55 55
 55 55 55 38 38 1 224 224 224 11 11 11 11 134 134 134 134 134 65 65
 65 65 65 65 65 55 55 55 55 55 55 55 38 1 1 1 224 224 11 11
 11 74 74 134 134 134 134 65 65 65 65 65 65 65 65 55 55 55 116 116
 116 116 1 1 1 1 224 74 74 74 74 74 134 134 134 134 65 65 65 65
 65 65 65 64 83 116 116 116 116 116 116 1 1 1 1 74 74 74 74 74
 74 74 7 7 7 7 65 65 65 65 65 64 64 83 116 116 116 116 116 116
 1 1 1 1 74 74 74 74 74 74 74 7 7 7 7 7 65 65 65 64
 64 64 83 116 116 116 116 116 116 116 1 1 1 74 74 74 74 74 74 144
 144 144 144 144 144 144 211 211 211 64 64 83 116 116 116 116 116 116 184 184
 187 187 8 8 74 74 74 74 144 144 144 144 144 144 144 211 211 211 211 211
 83 116 116 116 116 116 184 184 184 187 187 187 8 8 8 8 144 144 144 144
 144 144 144 144 144 211 211 211 211 83 116 116 249 249 184 184 184 184 187 187
 187 187 8 8 8 144 144 144 144 144 144 144 144 144 138 138 138 138 138 116
 116 249 249 91 91 184 184 135 135 135 135 135 8 8 200 144 144 144 144 144
 144 144 138 138 138 138 138 138 249 249 249 249 91 91 184 184 135 135 135 135
 135 22 22 200 200 144 144 67 144 144 232 232 138 138 138 138 138 215 215 215
 215 91 91 184 184 184 135 135 135 22 22 22 200 200 236 67 67 67 232 232
 232 138 138 138 138 138 215 215 215 215 215 91 184 184 184 135 135 22 22 22
 22 200 200 200 67 67 67 232 232 50 50 50 50 50 50 215 215 215 215 215
 215 184 184 184 135 22 22 22 22 22 22 22 22 67 67 67 232 50 50 50
 50 50 50 50 215 215 215 215 215 215 139 31 31 22 22 22 22 22 22 22
 22 148 148 148 148 148 50 50 50 50 50 50 50 50 215 215 139 139 139 139
 139 29 29 22 22 22 22 22 22 22 148 148 148 148 148 50 50 50 50 50
 50 50 50 50 213 139 139 139 139 139 29 29 22 22 22 22 22 22 208 208
 148 148 148 148 148 50 50 50 50 50 50 213 213 213 204 204 204 204 204 29
 29 29 22 22 22 22 208 208 208 208 148 148 148 148 85 85 85 85 85 213
 213 213 213 204 204 204 204 204 204 29 180 180 180 22 22 208 208 208 208 208
 208 208 208 85 85 85 85 216 216 216 216 216 204 204 204 204 204 204 204 180
 180 180 180 208 208 208 208 208 208 208 208 208 85 85 85 85 216 216 216 216
 216 204 204 204 204 204 204 204 180 180 40 40 40 208 208 208 208 208 243 243
 243 243 85 85 90 216 216 216 216 216 204 204 204 204 204 204 204 24 24 40
 40 40 208 208 208 125 125 243 243 243 243 243 90 90 216 216 216 216 216 204
 204 204 204 204 204 24 24 24 24 24 40 105 105 105 125 125 243 243 243 243
 243 140 140 140 216 216 216 130 204 204 204 204 204 24 24 24 24 24 24 40
 40 105 105 125 125 243 243 243 243 243 140 140 140 140 140 130 55 55 204 204
 204 204 24 24 24 24 24 24 40 40 105 105 125 125 243 243 243 243 243 140
 140 140 140 140 130 55 55 55 55 38 38 143 24 24 24 24 24 157 157 134
 134 235 145 145 145 145 145 160 160 140 140 140 140 140 55 55 55 38 38 38
 224 224 224 224 24 157 157 157 134 134 134 145 145 145 145 145 160 160 160 140
 140 140 55 55 55 55 38 38 38 224 224 224 224 157 157 157 157 134 134 134
 134 145 145 145 145 160 160 160 160 140 55 55 55 55 55 38 38 224 224 224
 224 224 157 157 157 157 134 134 134 134 145 145 145 145 160 160 160 160 55 55
 55 55 55 55 38 38 224 224 224 224 224 11 157 157 157 134 134 134 134 145
 145 65 65 65 160 160 55 55 55 55 55 55 55 38 38 1 224 224 224 224
 11 157 157 157 134 134 134 134 65 65 65 65 64 64 64 64 83 55 55 116
 116 116 116 1 1 1 1 224 74 74 74 74 74 134 134 134 134 65 65 65
 64 64 64 64 64 83 83 116 116 116 116 116 1 1 1 1 74 74 74 74
 74 74 74 144 144 144 144 65 65 64 64 64 64 64 83 83 116 116 116 116
 116 116 1 1 59 74 74 74 51 51 51 144 144 144 144 144 144 65 64 64
 64 64 64 83 83 116 116 116 116 116 116 116 59 59 8 8 51 51 51 51
 144 144 144 144 144 144 144 211 211 211 64 64 83 83 116 116 116 116 116 116
 184 59 8 8 8 8 51 51 51 144 144 144 144 144 144 144 211 211 211 211
 211 83 83 116 116 116 91 91 91 184 187 135 8 8 8 8 8 144 144 144
 144 144 144 144 144 211 211 211 211 211 83 83 116 249 249 91 91 91 184 187
 135 135 8 8 8 8 144 144 144 144 144 144 144 144 211 138 138 138 138 138
 83 116 249 249 91 91 91 184 135 135 135 8 8 8 8 200 144 144 144 144
 144 144 144 138 138 138 138 138 138 249 249 249 249 91 91 91 184 135 135 135
 135 8 8 200 200 200 144 144 144 144 144 138 138 138 138 138 138 138 249 249
 215 215 91 91 91 184 135 135 135 135 22 22 200 200 200 200 67 67 67 67
 138 138 138 138 138 138 138 249 249 215 215 215 91 91 184 184 135 31 22 22
 22 200 200 200 200 67 67 67 67 50 50 50 50 50 50 50 215 215 215 215
 215 215 91 184 31 31 31 22 22 22 22 200 200 200 67 67 67 67 50 50
 50 50 50 50 50 215 215 215 215 215 215 31 31 31 31 31 22 22 22 22
 22 22 148 148 148 148 148 50 50 50 50 50 50 50 215 215 215 215 215 215
 31 31 31 31 31 22 22 22 22 22 22 148 148 148 148 148 50 50 50 50
 50 50 50 50 215 213 204 204 204 204 31 31 31 31 22 22 22 22 22 208
 208 148 148 148 148 148 50 50 50 50 50 50 213 213 213 204 204 204 204 204
 204 31 31 22 22 22 22 208 208 208 208 148 148 148 85 85 85 85 85 85
 213 213 213 213 204 204 204 204 204 204 204 225 22 22 22 22 208 208 208 208
 208 208 208 85 85 85 85 85 85 213 213 213 213 204 204 204 204 204 204 204
 225 225 180 22 208 208 208 208 208 208 208 243 243 85 85 85 85 90 213 213
 213 213 204 204 204 204 204 204 204 225 225 225 40 208 208 208 208 208 208 243
 243 243 243 85 85 90 90 213 213 213 213 204 204 204 204 204 204 204 24 24
 24 24 105 105 105 105 105 125 243 243 243 243 243 90 90 90 213 213 213 213
 204 204 204 204 204 204 24 24 24 24 24 24 105 105 105 105 125 243 243 243
 243 243 90 90 213 213 213 213 213 204 204 204 204 204 24 24 24 24 24 24
 24 105 105 105 105 125 243 243 243 243 243 140 140 140 140 213 213 55 55 204
 204 204 204 24 24 24 24 24 24 24 105 105 105 105 125 243 243 243 243 160
 160 140 140 140 140 213 55 55 55 55 38 38 24 24 24 24 24 24 157 157
 157 105 105 145 145 145 145 160 160 160 160 140 140 140 140 55 55 55 38 38
 38 224 224 224 24 24 157 157 157 157 134 134 145 145 145 145 160 160 160 160
 160 140 55 55 55 55 55 38 38 224 224 224 224 224 157 157 157 157 157 134
 134 134 145 145 145 160 160 160 160 160 160 55 55 55 55 55 38 38 224 224
 224 224 224 157 157 157 157 157 134 134 134 145 145 145 145 160 160 160 160 55
 55 55 55 55 55 38 38 224 224 224 224 224 157 157 157 157 157 134 134 134
 145 145 145 145 160 160 160 160 55 55 55 55 55 55 38 38 224 224 224 224
 224 157 157 157 157 157 134 134 134 145 65 64 64 64 64 64 64 83 83 55
 116 116 116 116 38 1 224 224 224 224 74 74 157 157 157 134 134 166 166 65
 64 64 64 64 64 64 83 83 83 116 116 116 116 116 1 59 59 59 51 51
 51 51 51 51 166 166 166 166 166 64 64 64 64 64 64 83 83 83 116 116
 116 116 116 59 59 59 59 51 51 51 51 51 51 144 144 166 166 166 64 64
 64 64 64 64 83 83 83 116 116 116 116 116 59 59 59 8 8 51 51 51
 51 144 144 144 144 144 144 211 211 211 64 64 64 83 83 83 116 116 116 116
 116 59 59 8 8 8 8 51 51 51 144 144 144 144 144 144 211 211 211 211
 64 64 83 83 83 249 249 91 91 91 91 91 8 8 8 8 8 8 8 144
 144 144 144 144 144 211 211 211 211 211 211 83 83 83 249 249 91 91 91 91
 91 135 8 8 8 8 8 8 144 144 144 144 144 144 144 211 138 138 138 138
 138 83 83 249 249 91 91 91 91 135 135 135 8 8 8 8 200 200 144 144
 144 144 144 138 138 138 138 138 138 138 249 249 249 249 91 91 91 91 135 135
 135 135 8 200 200 200 200 200 144 144 144 144 138 138 138 138 138 138 138 249
 249 249 215 215 91 91 91 135 135 135 135 200 200 200 200 200 200 67 67 67
 67 138 138 138 138 138 138 138 249 249 215 215 215 215 91 31 31 31 31 31
 22 200 200 200 200 200 67 67 67 67 50 50 138 138 138 138 215 215 215 215
 215 215 215 91 31 31 31 31 31 22 22 200 200 200 200 67 67 67 67 50
 50 50 50 50 50 50 215 215 215 215 215 215 31 31 31 31 31 31 22 22
 22 200 200 200 148 148 148 148 50 50 50 50 50 50 50 215 215 215 215 215
 215 31 31 31 31 31 31 22 22 22 22 200 148 148 148 148 148 50 50 50
 50 50 17 17 215 215 213 213 204 204 31 31 31 31 31 31 22 22 22 22
 208 208 148 148 148 148 148 50 85 85 85 85 85 213 213 213 213 204 204 204
 204 31 31 31 31 22 22 22 208 208 208 208 208 148 148 85 85 85 85 85
 85 213 213 213 213 213 204 204 204 204 204 225 225 225 22 22 208 208 208 208
 208 208 208 208 85 85 85 85 85 85 213 213 213 213 213 204 204 204 204 204
 225 225 225 225 208 208 208 208 208 208 208 208 243 85 85 85 85 85 90 213
 213 213 213 204 204 204 204 204 204 225 225 225 225 225 208 208 208 208 208 208
 243 243 243 85 85 85 90 90 213 213 213 213 204 204 204 204 204 204 225 225
 225 225 24 105 105 105 105 105 125 243 243 243 243 85 90 90 90 213 213 213
 213 204 204 204 204 204 204 24 24 24 24 24 24 105 105 105 105 125 243 243
 243 243 243 90 90 213 213 213 213 213 204 204 204 204 204 24 24 24 24 24
 24 24 105 105 105 105 105 243 243 243 243 243 160 140 213 213 213 213 213 55
 204 204 204 54 24 24 24 24 24 24 24 105 105 105 105 105 243 243 243 160
 160 160 160 140 140 140 213 49 55 55 55 38 54 24 24 24 24 24 24 157
 157 157 157 105 145 145 145 145 160 160 160 160 160 140 140 140 49 49 49 55
 38 94 224 24 24 24 24 157 157 157 157 157 134 145 145 145 145 160 160 160
 160 160 160 55 55 49 49 49 38 38 94 224 224 224 99 99 157 157 157 157
 157 134 134 145 145 145 160 160 160 160 160 160 55 55 49 49 49 38 38 94
 224 224 224 99 99 157 157 157 157 157 134 134 145 145 145 160 160 160 160 160
 160 55 55 49 49 49 38 38 94 224 224 224 99 99 157 157 157 157 157 157
 157 145 145 145 160 160 160 160 160 83 55 55 55 49 49 38 38 94 234 234
 234 99 99 157 157 157 157 157 157 166 166 145 64 64 64 64 64 64 83 83
 83 116 116 116 116 38 234 234 234 234 51 51 157 157 157 157 157 166 166 166
 166 64 64 64 64 64 64 83 83 83 83 116 116 116 116 59 59 59 59 51
 51 51 51 51 157 166 166 136 136 136 177 64 64 64 64 64 83 83 83 116
 116 116 116 116 59 59 59 59 59 51 51 51 51 51 166 166 136 136 166 177
 64 64 64 64 64 83 83 83 116 116 116 116 116 59 59 59 59 8 51 51
 51 51 51 166 166 166 166 166 211 211 211 64 64 64 83 83 83 116 196 116
 116 59 59 59 59 8 8 8 51 51 51 144 144 144 144 166 166 211 211 211
 211 64 64 83 83 83 196 196 196 91 91 91 59 59 8 8 8 8 8 8
 144 144 144 144 144 144 211 211 211 211 211 64 83 83 83 249 249 91 91 91
 91 91 8 8 8 8 8 8 8 144 144 144 144 144 144 144 211 138 138 138
 138 138 83 83 249 27 27 91 91 91 91 135 8 8 8 8 189 189 189 189
 189 144 144 79 138 138 138 138 138 138 138 249 249 249 27 27 91 91 91 135
 135 135 8 8 200 200 200 189 189 189 144 144 79 138 138 138 138 138 138 138
 249 249 249 124 124 91 91 91 31 31 31 31 200 200 200 200 200 200 200 72
 72 72 138 138 138 138 138 138 138 249 249 124 215 215 215 91 31 31 31 31
 31 22 200 200 200 200 200 200 67 72 72 138 138 138 138 138 138 138 215 215
 215 215 215 215 215 31 31 31 31 31 22 22 200 200 200 200 200 82 72 72
 50 50 50 50 17 17 17 215 215 215 124 124 124 31 31 31 31 31 31 22
 22 22 200 200 200 82 82 82 82 50 50 50 17 17 17 17 17 215 215 124
 124 124 31 31 31 31 31 31 22 22 22 22 200 82 82 82 82 82 50 50
 50 17 17 17 17 17 215 213 213 124 31 31 31 31 31 31 31 22 22 22
 156 208 82 82 82 82 82 82 85 85 85 17 17 17 17 213 213 213 204 204
 12 31 31 31 31 31 22 22 93 93 208 208 82 82 82 82 85 85 85 85
 85 85 213 213 213 213 213 204 204 204 12 12 31 225 225 225 93 93 208 208
 208 208 208 208 208 85 85 85 85 85 85 213 213 213 213 213 204 204 204 204
 225 225 225 225 225 93 93 208 208 208 208 208 208 243 85 85 85 85 85 90
 213 213 213 213 213 204 204 204 204 225 225 225 225 225 225 105 105 105 105 208
 208 214 243 243 85 85 85 90 90 213 213 213 213 213 204 204 204 204 225 225
 225 225 225 24 105 105 105 105 105 214 214 243 243 243 85 90 90 90 213 213
 213 213 213 204 204 204 204 225 225 225 24 24 24 105 105 105 105 105 214 214
 243 243 243 243 90 213 213 213 213 213 213 213 204 204 54 54 54 24 24 24
 24 24 24 105 105 105 105 105 214 243 243 243 160 160 213 213 213 213 213 213
 49 49 54 54 54 54 24 24 24 24 24 24 105 105 105 105 105 214 243 243
 160 160 160 160 160 140 213 213 49 49 49 54 54 54 54 24 24 24 24 24
 157 157 157 105 105 105 145 145 145 160 160 160 160 160 160 247 247 49 49 49
 94 94 94 54 24 24 24 24 157 157 157 157 157 157 137 145 145 145 160 160
 160 160 160 160 247 247 49 49 49 94 94 94 94 99 99 99 99 157 157 157
 157 195 195 195 145 145 145 160 160 160 160 160 160 247 55 49 49 49 94 94
 94 94 99 99 99 99 157 157 157 157 195 195 195 145 145 145 160 160 160 160
 160 247 49 49 49 49 49 94 94 94 94 234 99 99 99 157 157 157 157 195
 195 195 195 145 145 45 45 45 45 45 83 83 55 49 49 49 38 94 94 234
 234 234 99 99 157 157 157 157 157 195 166 166 177 64 64 64 64 64 64 83
 83 83 83 116 116 116 94 234 234 234 234 234 99 157 157 157 157 166 166 166
 166 177 177 64 64 64 64 64 83 83 83 83 116 116 116 116 59 59 59 59
 59 51 51 51 157 166 166 136 136 136 177 177 64 64 64 64 64 83 83 83
 83 116 116 116 59 59 59 59 59 59 51 51 51 51 166 166 136 136 136 177
 177 64 64 64 64 64 83 83 83 196 196 196 196 59 59 59 59 59 59 51
 51 51 51 166 166 166 166 166 166 177 211 211 64 64 64 83 83 83 196 196
 196 196 59 59 59 59 59 8 8 51 51 51 166 166 166 166 166 166 177 211
 211 211 64 64 83 83 83 196 196 196 196 91 59 59 59 8 8 8 8 8
 189 189 166 166 166 166 166 177 211 211 211 138 138 83 196 196 196 196 196 91
 91 91 59 59 8 8 8 8 8 189 189 189 144 166 166 166 177 211 138 138
 138 138 138 196 196 27 27 27 27 91 91 203 203 203 8 8 78 189 189 189
 189 189 189 79 79 79 138 138 138 138 193 193 27 27 27 27 27 27 91 91
 31 31 31 203 8 78 189 189 189 189 189 189 72 79 79 138 138 138 138 193
 193 193 27 124 27 124 124 91 31 31 31 31 31 200 200 200 200 162 162 72
 72 72 72 138 138 138 138 138 193 193 193 124 124 124 124 124 124 31 31 31
 31 31 31 200 200 200 200 72 72 72 72 72 72 104 104 104 104 104 193 124
 124 124 124 124 124 31 31 31 31 31 31 31 22 200 200 200 72 72 72 72
 72 72 104 104 104 17 17 17 124 124 124 124 124 124 31 31 31 31 31 31
 31 22 156 200 200 82 82 82 82 82 76 76 76 17 17 17 17 17 124 3
 3 3 3 31 31 31 31 31 31 31 156 156 156 156 82 82 82 82 82 76
 76 76 17 17 17 17 17 124 3 3 3 3 31 31 31 31 31 31 31 156
 156 156 156 82 82 82 82 82 76 76 76 17 17 17 17 17 213 213 213 3
 12 12 12 12 31 31 31 31 93 93 93 156 82 82 82 82 82 82 76 62
 62 17 17 213 213 213 213 213 204 12 12 12 12 12 31 225 225 93 93 93
 93 82 82 82 82 82 62 62 62 62 62 62 213 213 213 213 213 204 12 12
 12 12 225 225 225 225 93 93 93 93 93 208 214 82 82 62 62 62 62 62
 213 213 213 213 213 213 204 204 12 12 225 225 225 225 225 225 93 93 93 105
 214 214 214 214 214 62 62 62 90 213 213 213 213 213 213 204 204 204 225 225
 225 225 225 225 225 105 105 105 105 214 214 214 214 214 214 62 90 90 213 213
 213 213 213 213 204 204 54 54 225 225 225 220 220 220 77 105 105 105 214 214
 214 214 214 214 243 90 213 213 213 213 213 213 213 201 54 54 54 54 54 24
 24 24 24 77 77 105 105 214 214 214 214 214 243 160 160 213 213 213 213 213
 201 201 201 54 54 54 54 54 24 24 24 24 77 77 77 105 214 214 214 214
 214 160 160 160 160 160 213 247 247 201 201 201 54 54 54 54 54 24 24 24
 24 77 77 77 137 137 214 214 214 160 160 160 160 160 160 247 247 247 201 201
 201 201 54 54 54 54 99 99 99 157 157 157 137 137 137 137 137 145 160 160
 160 160 160 160 247 247 247 201 201 201 94 94 94 94 99 99 99 99 99 157
 157 195 195 195 137 137 137 160 160 160 160 160 160 247 247 247 49 49 49 94
 94 94 94 99 99 99 99 99 157 157 195 195 195 137 137 137 45 45 45 45
 45 45 247 247 247 181 181 181 94 94 94 94 234 99 99 99 99 157 157 195
 195 195 137 137 137 45 45 45 45 45 45 247 247 181 181 181 181 181 94 94
 234 234 234 99 99 99 157 157 137 137 137 137 137 177 45 45 45 45 45 45
 83 83 181 181 181 181 181 94 234 234 234 234 234 99 99 157 157 137 166 166
 166 166 177 177 45 45 45 45 45 83 83 83 181 181 181 181 59 59 59 59
 59 59 51 51 51 157 166 166 166 136 166 177 177 177 64 64 64 64 83 83
 83 83 181 196 196 59 59 59 59 59 59 51 51 51 51 166 166 166 166 166
 177 177 177 64 64 64 64 83 83 83 196 196 196 196 59 59 59 59 59 59
 51 51 51 51 166 166 166 166 166 177 177 177 177 64 64 64 83 83 83 196
 196 196 196 59 59 59 59 59 59 78 78 78 78 166 166 166 166 166 177 177
 177 211 211 64 64 83 83 196 196 196 196 196 196 59 59 59 59 8 8 78
 78 189 189 166 166 166 166 79 79 79 211 211 138 193 196 196 196 196 196 196
 196 91 91 59 59 8 8 8 78 189 189 189 189 166 166 79 79 79 79 138
 138 138 193 193 196 196 27 27 27 27 27 203 203 203 203 203 78 78 189 189
 189 189 189 189 79 79 79 79 138 193 193 193 193 193 27 27 27 27 27 27
 203 203 203 203 203 203 78 189 189 162 162 162 162 72 79 79 104 104 104 193
 193 193 193 27 124 124 124 124 124 203 203 203 203 203 203 200 200 162 162 162
 72 72 72 72 72 104 104 104 104 193 193 193 124 124 124 124 124 124 31 31
 31 31 31 31 200 200 162 162 72 72 72 72 72 72 104 104 104 104 104 193
 193 124 124 124 124 124 31 31 31 31 31 31 31 156 156 156 200 72 72 72
 72 72 72 104 104 104 104 104 193 124 124 3 3 3 3 31 31 31 31 31
 31 31 156 156 156 156 156 72 72 72 72 76 76 76 76 17 17 17 17 3
 3 3 3 3 31 31 31 31 31 31 31 156 156 156 156 156 82 82 82 82
 76 76 76 76 17 17 17 17 3 3 3 3 3 12 12 31 31 92 92 92
 156 156 156 156 156 82 82 82 82 76 76 76 76 17 17 17 70 70 70 3
 3 12 12 12 12 92 92 92 92 156 156 93 156 156 82 82 82 82 76 76
 62 62 62 62 70 70 70 70 70 12 12 12 12 12 12 92 92 93 93 93
 93 93 93 82 82 82 82 62 62 62 62 62 62 70 70 70 70 70 12 12
 12 12 12 12 225 225 93 93 93 93 93 93 214 214 214 214 62 62 62 62
 62 62 70 70 70 70 213 12 12 12 12 12 225 225 225 220 93 93 93 93
 214 214 214 214 214 214 62 62 62 62 213 70 70 70 213 213 12 12 12 12
 225 225 225 220 220 220 93 93 214 214 214 214 214 214 214 214 62 62 90 213
 213 213 213 213 213 54 54 54 54 220 220 220 220 220 220 77 77 214 214 214
 214 214 214 214 214 86 86 86 213 213 213 213 213 201 54 54 54 54 54 54
 220 220 220 220 77 77 77 214 214 214 214 214 214 86 86 86 86 213 213 213
 247 201 201 54 54 54 54 54 54 54 220 220 77 77 77 77 214 214 214 214
 214 214 86 86 160 86 247 247 247 247 201 201 201 54 54 54 54 54 54 24
 24 77 77 77 77 137 137 137 214 214 110 160 160 160 160 247 247 247 247 201
 201 201 221 54 54 54 54 99 99 99 77 77 137 137 137 137 137 137 110 110
 160 160 160 160 247 247 247 247 201 201 201 221 94 94 94 54 99 99 99 99
 137 137 137 137 137 137 137 137 110 45 45 45 45 247 247 247 247 221 221 221
 94 94 94 94 99 99 99 99 99 137 137 137 137 137 137 137 137 45 45 45
 45 45 45 247 247 221 181 181 181 181 94 94 94 234 99 99 99 99 137 137
 137 137 137 137 137 137 45 45 45 45 45 45 247 247 181 181 181 181 181 94
 94 234 234 234 99 99 99 137 137 137 137 137 137 137 177 45 45 45 45 45
 45 202 202 181 181 181 181 181 181 234 234 234 234 234 99 99 137 137 137 137
 166 166 177 177 177 45 45 45 45 45 202 202 202 181 181 181 181 181 59 59
 59 59 59 51 51 152 152 137 166 166 166 177 177 177 177 45 45 45 202 202
 202 202 181 181 181 181 59 59 59 59 59 59 51 51 78 152 166 166 166 166
 166 177 177 177 177 45 64 202 202 202 202 196 196 196 196 59 59 59 59 59
 59 78 78 78 78 166 166 166 166 166 177 177 177 177 177 64 202 202 202 202
 196 196 196 196 59 59 59 59 59 78 78 78 78 78 78 166 166 166 166 79
 177 177 177 218 218 202 202 202 202 196 196 196 196 196 59 59 59 59 78 78
 78 78 78 189 166 166 166 79 79 79 79 79 218 193 193 193 196 196 196 196
 196 196 203 203 203 203 203 78 78 78 78 189 189 189 189 79 79 79 79 79
 79 193 193 193 193 193 196 192 192 192 192 203 203 203 203 203 203 78 78 78
 189 189 189 162 162 79 79 79 79 79 193 193 193 193 193 27 192 192 192 192
 203 203 203 203 203 203 203 78 78 162 162 162 162 162 72 72 79 104 104 104
 193 193 193 193 192 192 192 192 192 203 203 203 203 203 203 203 203 162 162 162
 162 72 72 72 72 72 104 104 104 104 193 193 193 192 124 124 124 124 124 203
 203 203 203 114 114 114 162 162 162 72 72 72 72 72 72 104 104 104 104 104
 193 193 124 3 3 3 3 3 31 31 31 31 114 114 114 156 156 156 72 72
 72 72 72 72 104 104 104 104 104 193 3 3 3 3 3 3 92 92 31 31
 31 114 114 156 156 156 156 156 72 72 72 72 109 76 76 76 76 17 17 3
 3 3 3 3 3 92 92 92 92 92 92 92 156 156 156 156 156 82 82 82
 109 109 76 76 76 17 17 17 17 3 3 3 3 3 12 92 92 92 92 92
 92 156 156 156 156 156 82 82 82 82 109 76 76 76 17 17 70 70 70 70
 3 3 12 12 12 12 92 92 92 92 156 156 156 156 156 82 82 82 109 109
 62 62 62 62 62 70 70 70 70 70 12 12 12 12 12 92 92 92 92 93
 93 93 93 93 82 82 82 109 109 62 62 62 62 62 70 70 70 70 70 12
 12 12 12 12 12 92 92 92 93 93 93 93 93 214 214 214 214 34 62 62
 62 62 70 70 70 70 70 70 12 12 12 12 12 12 220 220 220 42 42 42
 42 214 214 214 214 214 34 34 34 62 62 70 70 70 70 70 70 12 12 12
 12 12 220 220 220 220 220 42 42 42 214 214 214 214 214 34 34 34 34 34
 70 70 70 70 213 221 221 54 54 54 220 220 220 220 220 220 77 77 77 214
 214 214 214 214 214 34 86 86 86 86 213 213 70 247 221 221 54 54 54 54
 54 220 220 220 220 77 77 77 214 214 214 214 214 214 86 86 86 86 86 247
 247 247 247 221 221 54 54 54 54 54 141 141 141 77 77 77 77 77 214 214
 214 214 214 86 86 86 86 86 247 247 247 221 201 221 221 54 54 54 54 141
 141 141 77 77 77 77 77 137 214 110 110 110 86 86 86 86 68 247 247 247
 221 201 201 221 54 54 54 54 54 99 99 77 77 77 137 137 137 137 110 110
 110 110 86 86 68 68 247 247 247 221 221 221 221 221 54 54 54 99 99 99
 99 137 137 137 137 137 137 110 110 110 45 45 45 68 68 247 247 247 221 221
 221 221 94 94 94 99 99 99 99 99 137 137 137 95 137 137 137 110 45 45
 45 45 45 45 247 247 221 181 181 181 181 94 94 94 234 99 99 99 99 137
 137 137 137 137 137 137 137 226 45 45 45 45 45 247 221 221 181 181 181 181
 94 94 234 234 234 99 99 99 137 137 137 137 137 137 137 226 226 45 45 45
 45 45 202 202 181 181 181 181 181 181 234 234 234 234 234 194 194 152 152 137
 137 137 137 177 177 177 45 45 45 45 45 202 202 202 181 181 181 181 181 59
 59 59 59 59 194 152 152 152 152 166 166 166 177 177 177 177 45 45 45 202
 202 202 202 202 181 181 181 59 59 59 59 59 59 78 78 152 152 152 166 166
 166 177 177 177 177 45 45 45 202 202 202 202 202 196 196 196 59 59 59 59
 59 78 78 78 78 78 166 166 166 166 177 177 177 177 177 218 218 202 202 202
 202 196 196 196 196 59 59 59 59 59 78 78 78 78 78 78 166 166 166 79
 79 79 177 177 218 218 202 202 202 202 196 196 196 196 203 203 203 203 203 78
 78 78 78 78 189 189 166 79 79 79 79 79 79 218 193 193 193 193 196 192
 192 192 192 203 203 203 203 203 78 78 78 78 189 189 189 189 79 79 79 79
 79 79 193 193 193 193 193 193 205 205 205 205 203 203 203 203 203 203 78 78
 78 189 189 162 162 162 79 79 79 79 193 193 193 193 193 193 193 205 205 205
 205 203 203 203 203 203 203 203 78 78 162 162 162 162 72 72 72 79 104 104
 104 193 193 193 193 205 205 205 205 205 203 203 203 203 203 203 203 203 162 162
 162 162 72 72 72 72 72 104 104 104 104 193 193 193 205 3 3 3 3 203
 203 203 203 114 114 114 114 114 162 162 72 72 72 72 72 72 104 104 104 104
 104 193 193 124 3 3 3 3 92 92 92 114 114 114 114 114 114 156 162 72
 72 72 72 72 72 104 104 104 104 104 104 3 3 3 3 3 3 92 92 92
 92 114 114 114 114 156 156 156 156 72 72 72 72 109 109 76 104 104 104 104
 3 3 3 3 3 3 92 92 92 92 92 92 114 156 156 156 156 156 156 82
 82 109 109 109 109 76 76 17 17 3 3 3 3 3 3 92 92 92 92 92
 92 92 156 156 156 156 156 82 82 82 109 109 109 109 62 62 62 70 70 70
 70 3 3 12 12 12 92 92 92 92 92 156 156 93 93 156 82 82 82 109
 109 109 62 62 62 62 70 70 70 70 70 12 12 12 12 12 92 92 92 92
 93 93 93 93 93 93 82 82 109 109 62 62 62 62 70 70 70 70 70 70
 12 12 12 12 12 92 92 92 92 42 42 42 42 42 42 214 214 34 34 34
 34 62 62 70 70 70 70 70 70 12 12 12 12 12 220 220 220 220 42 42
 42 42 42 214 214 214 214 34 34 34 34 62 70 70 70 70 70 70 128 12
 12 12 12 220 220 220 220 42 42 42 42 214 214 214 214 214 34 34 34 34
 34 70 70 70 70 128 128 128 128 54 54 220 220 220 220 220 220 42 42 42
 214 214 214 214 214 214 34 34 86 86 86 70 70 70 221 221 221 221 54 54
 54 141 141 220 141 141 77 77 77 214 214 214 214 214 214 86 86 86 86 86
 247 247 247 221 221 221 221 54 54 54 54 141 141 141 141 77 77 77 77 214
 214 214 214 110 86 86 86 86 86 247 247 247 221 221 221 221 54 54 54 54
 141 141 141 141 77 77 77 77 137 214 110 110 110 86 86 86 86 68 247 247
 247 221 221 221 221 54 54 54 54 141 141 141 141 77 137 137 137 137 137 110
 110 110 86 86 86 68 68 247 247 247 221 221 221 221 221 54 54 19 19 19
 99 137 137 137 137 137 137 137 110 110 110 110 86 68 68 68 247 247 221 221
 221 221 221 221 19 19 19 19 19 99 137 137 137 137 137 137 137 137 110 226
 226 45 45 45 68 247 247 221 221 181 181 221 221 19 19 19 19 19 99 137
 137 137 137 137 137 137 137 226 226 226 45 45 45 45 247 221 221 181 181 181
 181 221 19 19 19 19 19 194 194 137 137 137 137 137 137 137 226 226 226 45
 45 45 45 202 202 181 181 181 181 181 181 181 19 19 19 194 194 194 152 152
 152 137 137 137 177 177 226 226 45 45 45 45 202 202 202 181 181 181 181 181
 59 59 59 59 194 194 194 152 152 152 152 237 166 177 177 177 177 45 45 45
 165 202 202 202 202 181 181 181 181 59 59 59 59 194 194 194 152 152 152 237
 237 166 177 177 177 177 45 45 45 165 165 165 202 202 219 219 219 59 59 59
 59 59 78 78 78 78 152 237 237 237 166 177 177 177 177 218 218 218 218 165
 165 202 219 219 219 219 203 203 59 59 59 78 78 78 78 78 237 237 237 79
 79 79 79 79 218 218 218 218 165 165 202 219 219 219 219 203 203 203 203 203
 78 78 78 78 78 189 237 237 79 79 79 79 79 218 218 218 218 193 193 47
 219 219 205 205 203 203 203 203 203 203 78 78 78 189 189 189 189 79 79 79
 79 79 218 218 193 193 193 193 47 205 205 205 205 203 203 203 203 203 203 203
 78 78 189 189 162 162 162 79 79 79 79 193 193 193 193 193 47 47 205 205
 205 205 203 203 203 203 203 203 203 78 78 162 162 162 162 72 72 79 79 104
 104 104 193 193 193 47 205 205 205 205 205 203 203 203 203 203 203 203 203 162
 162 162 162 72 72 72 72 72 104 104 104 104 193 193 47 205 205 2 2 2
 203 203 203 203 114 114 114 114 114 162 162 72 72 72 72 72 72 104 104 104
 104 104 193 2 2 2 2 2 2 92 92 114 114 114 114 114 114 114 156 162
 72 72 72 72 72 109 104 104 104 104 104 104 2 2 2 2 2 2 92 92
 92 114 114 114 114 114 156 156 156 156 73 73 73 109 109 109 109 104 104 104
 2 2 2 2 2 2 2 92 92 92 92 92 114 114 156 156 156 156 156 73
 73 73 109 109 109 109 109 76 17 17 2 2 2 2 2 92 92 92 92 92
 92 92 92 156 156 156 156 156 73 73 73 109 109 109 109 109 62 62 70 70
 70 70 2 2 12 92 92 92 92 92 92 92 156 156 93 93 156 73 73 109
 109 109 109 109 62 62 62 70 70 70 70 70 12 12 12 12 92 92 92 92
 92 42 42 42 42 42 42 42 109 109 109 109 34 62 62 70 70 70 70 70
 70 12 12 12 12 92 92 92 92 92 42 42 42 42 42 42 214 214 34 34
 34 34 34 62 70 70 70 70 70 70 229 229 12 12 12 92 220 220 42 42
 42 42 42 42 42 214 214 34 34 34 34 34 34 70 70 70 70 128 128 128
 229 229 12 12 220 220 220 220 42 42 42 42 42 214 214 214 186 34 34 34
 34 34 70 70 70 70 128 128 128 128 229 54 220 220 220 220 141 42 42 42
 42 214 214 214 214 186 186 34 86 86 86 86 70 70 70 128 128 128 128 54
 54 54 141 141 141 141 141 77 77 77 214 214 214 214 186 186 86 86 86 86
 86 86 247 128 128 128 128 128 54 54 54 141 141 141 141 141 77 77 77 77
 214 214 179 179 179 86 86 86 86 86 68 247 128 221 221 221 221 221 54 54
 141 141 141 141 141 77 77 77 77 137 214 110 110 110 86 86 86 86 68 68