# vtk DataFile Version 2.0
Data set from ImportExport Version 6.5.171.b0b162591
ASCII

DATASET RECTILINEAR_GRID
DIMENSIONS 30 30 30
X_COORDINATES 30 float
-1.250000 1.250000 3.750000 6.250000 8.750000 11.250000 13.750000 16.250000 18.750000 21.250000 23.750000 26.250000 28.750000 31.250000 33.750000 36.250000 38.750000 41.250000 43.750000 46.250000 48.750000 
51.250000 53.750000 56.250000 58.750000 61.250000 63.750000 66.250000 68.750000 71.250000 
Y_COORDINATES 30 float
-1.250000 1.250000 3.750000 6.250000 8.750000 11.250000 13.750000 16.250000 18.750000 21.250000 23.750000 26.250000 28.750000 31.250000 33.750000 36.250000 38.750000 41.250000 43.750000 46.250000 48.750000 
51.250000 53.750000 56.250000 58.750000 61.250000 63.750000 66.250000 68.750000 71.250000 
Z_COORDINATES 30 float
-1.250000 1.250000 3.750000 6.250000 8.750000 11.250000 13.750000 16.250000 18.750000 21.250000 23.750000 26.250000 28.750000 31.250000 33.750000 36.250000 38.750000 41.250000 43.750000 46.250000 48.750000 
51.250000 53.750000 56.250000 58.750000 61.250000 63.750000 66.250000 68.750000 71.250000 
CELL_DATA 24389
SCALARS FeatureIds int 1
LOOKUP_TABLE default
 78 78 135 135 135 2 2 2 2 2 6 6 6 6 25 62 62 62 62 106
 106 106 106 106 78 78 78 78 78 78 78 135 135 135 116 116 2 2 2 2
 2 2 2 25 25 106 106 106 106 106 106 106 106 106 78 78 78 78 78 78
 78 135 116 116 116 116 2 2 2 2 2 41 41 25 25 106 106 106 106 106
 106 106 78 78 78 78 78 71 71 71 113 113 116 116 116 116 116 2 2 41
 41 41 41 25 106 106 106 106 106 106 106 71 71 71 71 71 71 210 210 210
 113 116 116 116 116 116 116 41 41 41 41 41 41 106 106 106 106 106 106 106
 71 71 71 71 71 210 210 210 210 235 235 235 116 116 116 116 41 41 41 41
 41 41 207 207 207 207 106 106 99 71 71 71 71 210 210 210 210 210 235 235
 235 235 116 116 101 101 101 101 101 101 101 207 207 207 207 99 99 99 99 99
 71 71 210 210 210 210 210 235 235 235 235 235 235 101 101 101 101 101 101 101
 207 207 207 99 99 99 99 99 99 99 210 210 210 210 210 210 235 235 235 235
 235 148 148 148 101 101 101 101 101 155 155 99 99 99 99 99 99 99 99 210
 210 210 210 210 210 235 235 235 235 148 148 148 148 148 101 101 101 155 155 155
 60 99 99 99 99 99 99 99 210 210 219 210 210 134 235 235 235 74 74 148
 148 148 148 148 101 101 155 155 155 155 60 99 99 99 99 219 219 219 219 219
 134 134 134 134 74 74 74 74 148 148 148 148 148 148 148 155 155 155 155 60
 60 99 99 99 219 219 219 219 219 134 134 134 134 190 190 74 74 148 148 148
 148 148 148 145 155 155 155 60 60 60 99 99 219 219 219 219 219 219 134 134
 134 134 190 190 74 74 74 148 148 148 148 148 145 138 138 60 60 60 60 188
 219 219 219 219 219 219 134 134 134 134 134 242 242 74 242 242 148 148 148 148
 44 138 138 138 138 138 60 188 188 188 188 219 219 219 219 18 134 134 134 103
 242 242 242 242 242 97 97 97 97 97 138 138 138 138 138 138 188 188 188 188
 18 18 18 18 18 134 134 103 103 103 242 242 242 97 97 97 97 97 97 138
 138 138 138 138 188 188 188 188 188 18 18 18 18 18 18 103 103 103 103 103
 242 242 97 97 97 97 97 73 73 138 138 138 107 107 107 188 188 188 104 18
 18 18 18 18 103 103 103 103 103 103 97 97 97 97 97 73 73 73 138 138
 138 107 107 107 107 188 104 104 104 104 18 40 40 103 103 103 103 103 103 97
 97 97 73 73 73 73 73 215 215 215 107 107 107 107 56 104 104 104 104 40
 40 40 40 156 156 156 156 156 156 97 73 73 73 73 73 73 215 215 215 107
 107 107 56 56 56 104 104 40 40 40 40 40 156 156 156 156 156 156 33 33
 33 73 73 73 215 215 215 215 215 107 56 56 56 56 56 40 40 40 40 40
 239 156 156 156 156 156 156 173 173 173 173 173 73 215 215 215 215 215 107 56
 56 56 56 56 40 40 40 40 239 239 126 126 126 156 156 173 173 173 173 173
 173 173 215 215 215 215 215 107 56 43 43 56 56 40 40 40 239 239 239 126
 126 126 126 126 173 173 173 173 173 173 173 215 215 215 215 39 39 43 43 43
 43 43 40 40 40 239 239 126 126 126 126 126 126 6 6 173 173 173 173 173
 215 215 39 39 39 39 39 39 43 43 43 218 218 218 185 185 185 126 126 126
 126 6 6 6 6 6 173 173 173 39 39 39 39 39 39 39 39 39 87 218
 218 218 218 185 185 185 126 126 126 126 6 6 6 6 6 6 6 6 39 39
 39 39 39 39 39 39 39 87 218 218 218 218 185 185 185 126 126 126 6 6
 6 6 6 6 6 6 6 62 62 62 62 39 39 106 106 106 106 218 218 218
 218 78 78 135 135 135 135 227 227 2 2 2 2 2 25 25 62 62 62 62
 62 106 106 106 106 106 78 78 78 78 78 78 135 135 135 116 116 116 2 2
 2 2 2 25 25 25 62 62 62 106 106 106 106 106 106 78 78 78 78 78
 78 135 135 135 116 116 116 116 2 2 2 2 25 25 25 25 106 106 106 106
 106 106 106 106 78 78 78 78 71 71 135 135 135 116 116 116 116 116 116 116
 41 41 25 25 25 106 106 106 106 106 106 106 106 78 78 78 78 210 210 210
 210 116 116 116 116 116 116 116 116 41 41 41 25 25 207 207 106 106 106 106
 106 71 71 71 59 71 210 210 210 210 235 235 235 116 116 116 116 41 41 41
 41 41 207 207 207 207 207 207 106 99 71 71 59 59 210 210 210 210 210 235
 235 235 235 116 116 101 101 101 101 101 101 207 207 207 207 207 207 99 99 99
 59 59 59 210 210 58 210 210 235 235 235 235 235 22 22 22 22 101 101 166
 166 207 207 207 207 99 99 99 99 99 59 210 210 210 210 210 210 235 235 235
 235 235 22 22 22 22 22 101 101 207 207 207 207 207 99 99 99 99 57 57
 210 210 210 210 210 210 235 235 235 235 22 22 22 22 22 22 101 101 60 60
 60 60 60 99 99 99 57 57 57 210 210 219 210 210 210 235 235 235 74 74
 148 148 148 148 148 101 60 60 60 60 60 60 60 99 57 57 57 219 219 219
 219 219 134 134 89 74 74 74 74 148 148 148 148 148 148 44 60 60 60 60
 60 60 99 57 57 219 219 219 219 219 134 134 134 89 190 190 74 74 74 148
 148 148 148 44 44 44 60 60 60 60 60 60 57 219 219 219 219 219 219 134
 134 134 89 190 190 74 190 190 148 148 148 44 44 44 44 138 60 60 60 60
 60 219 219 219 219 219 219 219 134 134 134 89 242 74 242 242 242 97 97 148
 44 44 44 138 138 138 138 60 188 188 188 219 219 219 219 219 18 134 134 134
 103 242 242 242 242 242 97 97 97 44 44 44 138 138 138 138 138 188 188 188
 188 18 18 18 18 18 134 134 103 103 242 242 242 242 97 97 97 97 97 44
 44 138 138 138 138 138 188 188 188 188 18 18 18 18 18 18 103 103 103 103
 242 242 242 97 97 97 97 97 73 73 138 138 138 107 107 107 107 20 104 104
 18 18 18 18 18 103 103 103 103 103 242 97 97 97 97 97 73 73 73 226
 226 226 107 107 107 107 20 104 104 104 104 18 40 40 103 103 103 103 103 242
 97 97 97 97 73 73 73 73 226 226 215 107 107 107 107 107 104 104 104 104
 40 40 40 40 156 156 156 156 156 156 97 73 73 73 73 73 73 215 215 215
 107 107 107 107 56 104 104 104 104 40 40 40 40 156 156 156 156 156 156 33
 73 73 73 73 73 215 215 215 215 215 107 107 56 56 56 56 40 40 40 40
 40 239 156 156 156 156 156 156 173 173 223 173 73 73 215 215 215 215 215 107
 56 56 56 56 56 40 40 40 40 239 239 131 126 126 156 156 173 173 223 223
 223 173 215 215 215 215 215 215 107 87 87 87 87 87 40 40 40 239 239 131
 126 126 126 126 227 172 173 173 223 173 173 215 215 215 215 62 62 62 87 87
 87 87 87 87 40 40 239 239 126 126 126 126 126 227 227 6 173 173 173 173
 173 215 62 62 62 62 62 62 87 87 87 87 218 218 218 185 185 185 126 126
 126 227 227 227 6 6 6 173 173 122 62 62 62 62 62 62 62 87 87 87
 87 218 218 218 185 185 185 126 126 227 227 227 227 6 6 6 6 6 122 62
 62 62 62 62 62 62 87 87 87 87 218 218 218 185 185 185 135 135 227 227
 227 227 6 6 6 6 6 122 62 62 62 62 62 62 106 106 106 87 78 78
 78 78 78 78 135 135 135 135 227 227 227 227 2 2 25 25 25 62 62 62
 62 62 106 106 106 106 78 78 78 78 78 78 78 135 135 135 135 179 179 179
 179 2 2 25 25 25 25 62 62 62 62 106 106 106 106 106 78 78 78 78
 78 78 135 135 135 179 179 179 179 179 179 179 25 25 25 25 25 62 62 106
 106 106 106 106 106 78 78 78 78 78 78 135 135 135 179 179 179 179 179 179
 179 25 25 25 25 25 25 62 106 106 106 106 106 106 78 78 78 78 210 210
 210 135 179 179 179 179 179 179 179 179 25 25 25 25 25 25 207 207 106 106
 106 106 59 59 59 59 59 210 210 210 210 235 235 179 179 179 179 179 179 41
 25 25 166 207 207 207 207 207 207 162 162 162 59 59 59 59 210 210 210 210
 235 235 235 235 179 179 22 22 22 22 166 166 207 207 207 207 207 207 162 162
 162 59 59 59 210 210 210 210 210 235 235 235 235 235 22 22 22 22 22 166
 166 166 207 207 207 207 207 99 99 57 57 59 59 210 210 210 210 210 235 235
 235 235 235 22 22 22 22 22 22 166 166 207 207 207 207 207 57 57 57 57
 57 210 210 210 210 210 210 235 235 235 235 22 22 22 22 22 22 22 166 166
 60 60 60 60 99 57 57 57 57 57 57 210 219 210 210 210 235 235 235 74
 74 22 22 22 22 22 22 166 60 60 60 60 155 155 57 57 57 57 219 219
 219 219 89 89 89 89 89 74 74 74 74 22 22 22 22 44 44 60 60 60
 155 155 155 57 57 57 219 219 219 219 219 89 89 89 89 190 74 74 74 190
 148 148 44 44 44 44 44 60 60 155 155 155 57 57 219 219 219 219 219 219
 89 89 89 89 74 74 74 190 190 148 148 44 44 44 44 44 138 60 60 155
 155 57 57 219 219 219 219 219 219 89 89 89 89 74 74 242 242 242 97 97
 44 44 44 44 44 138 138 138 155 155 20 219 219 219 219 219 219 18 89 89
 89 89 242 242 242 242 242 97 97 97 44 44 44 44 138 138 138 138 20 20
 20 20 18 18 18 18 18 89 89 89 103 242 242 242 242 97 97 97 97 44
 44 44 44 138 138 138 107 20 20 20 20 18 18 18 18 18 18 89 103 103
 242 242 242 242 97 97 97 97 73 73 44 226 226 226 107 107 107 20 20 20
 104 104 18 18 18 18 103 103 103 103 242 242 242 97 97 97 97 73 73 73
 226 226 226 107 107 107 107 20 20 104 104 104 18 40 40 131 103 103 103 157
 242 97 97 97 73 73 73 73 73 226 226 226 107 107 107 107 20 104 104 104
 104 104 40 40 131 156 156 156 157 157 157 97 73 73 73 73 73 226 226 215
 215 215 107 107 107 56 104 104 104 104 40 40 40 131 131 156 156 156 156 157
 172 73 73 73 73 73 215 215 215 215 215 107 107 107 56 56 104 104 40 40
 40 131 131 131 131 131 11 11 172 172 223 223 223 73 73 215 215 215 215 215
 107 107 87 87 87 87 40 40 40 40 131 131 131 131 131 11 172 172 172 223
 223 223 223 215 215 215 215 215 215 62 87 87 87 87 87 87 40 40 131 131
 131 131 131 126 227 172 172 172 223 223 223 223 223 215 215 62 62 62 62 87
 87 87 87 87 87 87 40 131 131 131 131 126 227 227 227 227 172 172 172 223
 223 122 122 62 62 62 62 62 87 87 87 87 87 87 153 153 153 131 131 126
 126 227 227 227 227 227 172 172 172 122 122 62 62 62 62 62 62 62 87 87
 87 87 87 153 153 153 185 135 135 227 227 227 227 227 227 172 172 172 122 122
 62 62 62 62 62 62 62 87 87 87 87 78 78 78 80 135 135 135 135 227
 227 227 227 227 227 172 172 122 122 62 62 62 62 62 62 62 106 87 87 78
 78 78 78 80 80 135 135 135 135 227 227 227 227 227 227 25 25 25 122 62
 62 62 62 62 106 106 106 78 78 78 78 78 80 80 135 135 135 135 179 179
 179 179 179 179 25 25 25 25 25 62 62 62 106 106 106 106 106 78 78 78
 78 80 80 135 135 135 135 179 179 179 179 179 179 25 25 25 25 25 25 62
 62 106 106 106 106 106 78 78 78 78 80 80 135 135 135 179 179 179 179 179
 179 179 25 25 25 25 25 25 62 106 106 106 106 106 106 59 59 78 78 210
 210 135 135 179 179 179 179 179 179 179 179 25 25 25 25 25 25 207 207 207
 106 53 53 162 59 59 59 59 210 210 210 210 179 179 179 179 179 179 179 179
 25 25 25 166 166 207 207 207 207 207 162 162 162 162 59 59 59 210 210 210
 210 235 235 235 179 179 179 22 22 22 166 166 166 166 207 207 207 207 207 162
 162 162 162 59 59 59 210 210 210 210 235 235 235 235 179 22 22 22 22 166
 166 166 166 207 207 207 207 207 162 162 162 162 59 59 210 210 210 210 210 235
 235 235 235 22 22 22 22 22 22 166 166 166 207 207 207 207 207 57 57 57
 57 57 210 210 210 210 210 210 120 120 120 120 22 22 22 22 22 22 22 166
 166 207 207 207 207 207 57 57 57 57 57 57 210 210 210 210 89 120 120 120
 74 22 22 22 22 22 22 22 166 166 60 60 60 155 155 57 57 57 57 57
 219 219 219 89 89 89 89 89 74 74 74 22 22 22 22 22 44 44 44 60
 60 155 155 155 57 57 57 57 219 219 219 119 89 89 89 89 89 74 74 74
 190 22 22 44 44 44 44 44 44 60 155 155 155 57 57 57 219 219 119 119
 119 89 89 89 89 89 74 74 74 190 148 44 44 44 44 44 44 44 60 60
 155 155 57 57 219 219 219 119 119 119 89 89 89 89 89 74 242 242 242 242
 44 44 44 44 44 44 44 138 138 155 20 20 20 219 219 219 119 119 119 89
 89 89 89 242 242 242 242 242 97 97 44 44 44 44 44 44 138 138 138 20
 20 20 20 219 219 119 119 119 89 89 89 89 242 242 242 242 97 97 97 97
 44 44 44 44 44 138 138 20 20 20 20 20 18 18 18 18 18 18 89 89
 103 242 242 242 242 97 97 97 97 73 44 44 226 226 226 226 107 20 20 20
 20 20 104 18 18 102 102 89 157 157 157 157 157 157 97 97 97 73 73 73
 226 226 226 226 226 107 107 20 20 20 104 104 104 104 102 102 131 11 11 157
 157 157 157 97 97 73 73 73 73 226 226 226 226 226 107 107 107 20 20 104
 104 104 104 40 131 131 11 11 11 157 157 157 157 97 73 73 73 73 226 226
 226 226 226 107 107 107 20 104 104 104 104 40 40 131 131 11 11 11 11 157
 157 172 223 223 73 73 73 215 215 215 215 215 107 107 107 87 87 104 104 40
 40 131 131 131 131 131 11 11 11 172 172 223 223 223 223 73 215 215 215 215
 215 107 107 87 87 87 87 87 40 40 131 131 131 131 131 131 11 172 172 172
 223 223 223 223 223 215 215 215 215 62 62 87 87 87 87 87 87 87 12 131
 131 131 131 131 131 172 172 172 172 172 223 223 223 223 122 215 62 62 62 62
 87 87 87 87 87 87 153 153 131 131 131 131 131 131 227 227 172 172 172 172
 172 122 122 122 122 62 62 62 62 87 87 87 87 87 87 153 153 153 131 131
 131 131 227 227 227 227 172 172 172 172 122 122 122 122 62 62 62 62 62 87
 87 87 87 153 153 153 153 153 135 135 227 227 227 227 227 227 172 172 172 122
 122 122 122 62 62 62 62 62 87 87 87 87 153 153 153 80 80 135 135 135
 227 227 227 227 227 172 172 172 122 122 122 122 62 62 62 62 62 62 87 87
 87 153 153 153 80 80 80 135 135 135 135 227 227 227 227 24 122 122 122 122
 122 62 62 62 62 62 106 237 237 153 153 153 80 80 80 80 135 135 135 179
 179 179 179 179 24 25 25 25 25 25 62 62 62 62 62 106 106 237 78 78
 78 80 80 80 80 135 135 135 179 179 179 179 179 25 25 25 25 25 25 25
 62 62 106 53 53 53 53 160 160 78 80 80 80 80 135 135 179 179 179 179
 179 179 179 25 25 25 25 25 25 25 53 53 53 53 53 53 59 59 59 80
 80 80 80 135 179 179 179 179 179 179 179 179 25 25 25 25 25 25 207 207
 53 53 53 53 162 59 59 59 59 210 210 210 210 179 179 179 179 179 179 179
 24 25 25 25 166 166 166 207 207 207 53 162 162 162 162 59 59 59 210 210
 210 210 120 120 120 179 179 179 22 22 166 166 166 166 166 166 207 207 207 162
 162 162 162 162 59 59 59 210 210 210 120 120 120 120 120 120 22 22 22 22
 166 166 166 166 166 207 207 207 162 162 162 162 162 59 59 210 210 210 210 120
 120 120 120 120 120 22 22 22 22 22 166 166 166 166 207 207 207 162 162 162
 57 57 57 231 210 210 210 210 120 120 120 120 120 22 22 22 22 22 22 166
 166 166 166 207 207 207 162 57 57 57 57 57 57 210 210 210 120 120 120 120
 120 120 120 22 22 22 22 22 202 202 202 202 60 60 155 57 57 57 57 57
 57 57 119 119 89 89 89 89 120 120 120 74 22 22 22 22 22 202 202 202
 202 60 155 155 57 57 57 57 57 57 119 119 119 89 89 89 89 89 74 74
 74 22 22 22 44 44 44 44 202 202 202 155 155 169 169 169 57 57 119 119
 119 119 89 89 89 89 89 74 74 74 190 22 44 44 44 44 44 44 44 44
 60 155 169 169 169 219 219 119 119 119 119 89 89 89 89 89 74 242 242 242
 242 44 44 44 44 44 44 44 138 138 155 20 20 20 232 219 119 119 119 119
 89 89 89 89 89 242 242 242 242 97 97 44 44 44 44 44 44 138 138 20
 20 20 20 20 219 119 119 119 119 89 89 89 89 242 242 242 242 97 97 97
 44 44 44 44 44 44 226 226 20 20 20 20 20 20 18 18 119 102 102 89
 89 157 157 157 157 157 97 97 97 97 73 44 44 226 226 226 226 20 20 20
 20 20 20 104 102 102 102 102 102 157 157 157 157 157 157 157 97 97 73 73
 73 226 226 226 226 226 107 20 20 20 20 104 104 104 102 102 102 11 11 11
 157 157 157 157 157 97 73 73 73 73 226 226 226 226 226 107 107 20 20 20
 104 104 102 102 12 12 11 11 11 11 157 157 157 157 157 73 73 73 73 226
 226 226 226 226 107 107 107 20 20 104 104 102 102 12 12 11 11 11 11 11
 157 157 157 223 223 73 73 73 226 226 226 226 226 143 143 143 87 87 87 104
 102 12 12 131 131 11 11 11 11 11 172 172 223 223 223 223 35 215 215 215
 215 215 143 143 87 87 87 87 87 12 12 131 131 131 131 131 131 172 172 172
 172 172 223 223 223 35 35 35 215 62 62 62 87 87 87 87 87 87 12 12
 131 131 131 131 131 131 172 172 172 172 172 223 223 223 35 35 35 62 62 62
 62 87 87 87 87 87 87 153 153 131 131 131 131 131 131 227 172 172 172 172
 172 172 122 122 122 122 62 62 62 62 87 87 87 87 87 153 153 153 153 131
 131 131 131 227 227 227 172 172 172 172 172 122 122 122 122 62 62 62 62 62
 87 87 87 87 153 153 153 153 153 131 131 131 227 227 227 227 172 172 172 172
 122 122 122 122 62 62 62 62 62 87 87 87 153 153 153 153 80 80 80 135
 135 135 227 227 227 172 172 172 122 122 122 122 122 62 62 62 62 62 237 237
 237 153 153 153 153 80 80 80 135 135 135 135 227 227 227 24 24 24 122 122
 122 122 122 62 128 62 237 237 237 237 237 153 153 80 80 80 80 135 135 135
 179 179 179 179 24 24 24 25 25 25 25 122 62 62 62 53 53 237 237 160
 160 160 80 80 80 80 135 135 135 179 179 179 179 24 24 25 25 25 25 25
 25 25 53 53 53 53 53 53 160 160 160 80 80 80 80 135 135 179 179 179
 179 179 24 24 25 25 25 25 25 25 25 53 53 53 53 53 53 160 160 160
 160 80 80 80 135 135 179 179 179 179 179 24 24 25 25 25 25 25 25 25
 53 53 53 53 53 53 160 160 160 160 210 210 210 120 120 179 179 179 179 179
 24 24 199 25 25 166 166 166 207 207 53 53 53 162 162 162 59 59 59 231
 210 210 120 120 120 120 120 179 179 24 199 199 199 166 166 166 166 207 207 207
 162 162 162 162 162 231 231 231 210 210 210 120 120 120 120 120 120 22 22 199
 199 199 166 166 166 166 207 207 207 162 162 162 162 162 231 231 231 210 210 120
 120 120 120 120 120 120 22 22 22 199 199 166 166 166 166 207 207 207 162 162
 162 162 144 231 231 231 210 210 120 120 120 120 120 120 120 22 22 22 22 199
 166 166 166 166 207 207 207 162 162 57 57 57 57 231 231 184 184 120 120 120
 120 120 120 120 22 22 22 22 22 202 202 202 202 202 60 169 169 169 169 57
 57 57 57 119 184 184 184 120 120 120 120 120 120 22 22 22 22 202 202 202
 202 202 202 202 169 169 169 169 169 169 169 119 119 184 184 184 89 89 89 120
 120 191 191 22 22 202 202 202 202 202 202 202 202 169 169 169 169 169 169 119
 119 119 184 184 184 89 89 89 74 74 191 191 191 202 202 202 202 202 202 202
 202 202 232 232 232 232 232 232 119 119 119 184 184 184 89 89 89 74 242 191
 191 187 202 202 202 202 202 202 202 202 202 232 232 232 232 232 232 119 119 119
 184 184 184 89 89 89 242 242 242 187 187 187 187 202 202 65 202 202 202 202
 147 20 20 20 232 232 102 119 119 102 184 184 89 89 157 157 242 187 187 187
 187 187 187 65 65 65 65 226 226 20 20 20 20 20 102 102 102 102 102 102
 102 157 157 157 157 157 157 187 187 187 187 187 65 65 226 226 226 226 20 20
 20 20 20 102 102 102 102 102 102 102 157 157 157 157 157 157 157 187 187 187
 187 73 226 226 226 226 226 226 230 20 20 20 102 102 102 102 102 102 11 11
 11 157 157 157 157 157 187 187 187 187 73 226 226 226 226 226 226 230 230 20
 20 102 102 102 102 12 12 11 11 11 11 157 157 157 157 187 187 73 73 73
 226 226 226 226 226 226 143 230 20 66 102 102 102 102 12 12 12 11 11 11
 11 157 157 157 157 172 73 73 4 4 4 4 4 4 143 143 143 66 66 66
 102 102 12 12 12 12 11 11 11 11 11 172 172 172 172 223 35 35 35 4
 4 4 4 143 143 143 66 66 66 66 12 12 12 12 12 12 11 11 11 172
 172 172 172 172 172 35 35 35 35 70 70 143 143 143 143 66 66 66 66 12
 12 12 12 12 131 131 131 172 172 172 172 172 172 172 35 35 35 35 70 70
 62 143 143 143 66 87 87 153 153 12 12 12 131 131 131 131 172 172 172 172
 172 172 172 35 35 35 35 70 70 62 62 87 87 87 87 87 153 153 153 153
 12 131 131 131 217 227 172 172 172 172 172 172 122 122 122 122 70 128 128 128
 237 237 237 237 237 153 153 153 153 153 131 217 217 217 227 227 172 172 172 172
 172 122 122 122 122 122 128 128 128 237 237 237 237 237 153 153 153 80 80 80
 135 135 135 227 227 172 172 172 172 172 122 122 122 122 122 128 128 128 237 237
 237 237 237 153 153 153 80 80 80 80 183 183 183 227 227 24 24 24 24 216
 216 216 216 122 62 128 62 237 237 237 237 237 153 153 80 80 80 80 80 183
 183 183 179 179 24 24 24 24 25 216 216 216 216 62 128 53 53 53 237 237
 160 160 160 80 80 80 80 80 183 183 183 179 179 24 24 24 24 25 25 25
 216 216 216 53 53 53 53 53 53 160 160 160 160 160 80 80 80 183 183 183
 179 179 24 24 24 24 25 25 25 25 25 25 53 53 53 53 53 53 160 160
 160 160 160 80 80 80 135 179 179 179 179 24 24 24 24 25 25 25 25 25
 37 53 53 53 53 53 53 160 160 160 160 160 160 28 28 120 120 120 179 179
 24 24 24 199 199 25 166 166 166 37 53 53 53 53 53 144 144 231 231 160
 231 231 28 120 120 120 120 120 120 24 199 199 199 199 199 166 166 166 207 207
 207 162 162 162 144 144 231 231 231 231 231 120 120 120 120 120 120 120 199 199
 199 199 199 199 166 166 166 207 207 207 162 162 162 144 144 231 231 231 231 231
 120 120 120 120 120 120 120 120 199 199 199 199 199 166 166 166 207 207 207 162
 162 162 144 144 231 231 231 231 120 120 120 120 120 120 120 120 22 22 199 199
 199 199 166 166 166 207 207 169 169 169 169 144 144 144 231 231 184 184 120 120
 120 120 120 120 120 120 22 22 202 202 202 202 202 202 202 202 169 169 169 169
 169 169 169 231 231 184 184 184 120 120 120 120 120 120 191 208 22 202 202 202
 202 202 202 202 202 169 169 169 169 169 169 169 169 184 184 184 184 184 120 120
 120 191 191 191 191 202 202 202 202 202 202 202 202 202 169 169 169 169 169 169
 169 119 184 184 184 184 184 89 120 191 191 191 191 191 202 202 202 202 202 202
 202 202 202 232 232 232 232 232 232 232 119 184 184 184 184 184 89 89 191 191
 191 191 191 202 202 202 202 202 202 202 202 202 232 232 232 232 232 232 232 119
 184 184 184 184 184 89 89 191 191 191 187 187 187 187 202 65 65 65 202 202
 202 147 232 232 232 232 232 102 102 102 102 139 184 139 139 157 157 157 187 187
 187 187 187 187 65 65 65 65 202 202 147 147 20 20 232 102 102 102 102 102
 139 139 139 157 157 157 157 157 187 187 187 187 187 65 65 65 65 226 230 230
 230 230 20 20 102 102 102 102 102 139 139 139 157 157 157 157 157 187 187 187
 187 187 65 65 226 226 226 230 230 230 230 230 102 102 102 102 102 102 102 139
 11 11 157 157 157 157 157 187 187 187 187 187 4 4 4 4 4 230 230 230
 230 102 102 102 102 102 102 12 11 11 11 11 157 157 157 157 187 187 187 187
 4 4 4 4 4 4 230 230 230 230 102 102 102 102 102 12 12 12 11 11
 11 11 157 157 157 172 172 100 100 4 4 4 4 4 4 143 143 143 66 66
 66 102 102 12 12 12 12 12 11 11 11 11 172 172 172 172 172 35 35 35
 4 4 4 4 143 143 143 66 66 66 66 12 12 12 12 12 12 11 11 11
 172 172 172 172 172 172 35 35 35 35 70 70 143 143 143 143 66 66 66 66
 12 12 12 12 12 12 131 11 172 172 172 172 172 172 172 35 35 35 35 70
 70 70 143 143 66 66 66 66 66 12 12 12 12 12 12 217 217 172 172 172
 172 172 172 172 35 35 35 35 70 70 70 143 143 237 237 237 237 153 153 153
 153 12 131 217 217 217 217 172 172 172 172 172 172 35 35 35 35 70 70 128
 128 237 237 237 237 237 153 153 153 153 153 217 217 217 217 217 172 172 172 172
 172 165 165 122 122 122 122 128 128 128 237 237 237 237 237 153 153 153 80 80
 80 217 217 217 217 172 172 172 172 172 165 165 122 122 122 122 128 128 128 237
 237 237 237 237 153 153 153 80 80 80 80 183 183 183 240 240 24 24 24 165
 165 216 216 216 216 216 128 237 237 237 237 237 237 153 153 80 80 80 80 183
 183 183 183 240 240 24 24 24 24 24 216 216 216 216 216 128 53 53 94 94
 94 160 160 160 160 160 80 80 80 183 183 183 240 240 24 24 24 24 24 216
 216 216 216 216 53 53 53 53 53 94 160 160 160 160 160 80 80 80 183 183
 240 240 240 24 24 24 24 24 25 25 216 216 37 53 53 53 53 53 53 160
 160 160 160 160 160 28 28 28 240 240 240 240 24 24 24 24 24 25 25 37
 37 37 53 53 53 53 53 53 160 160 160 160 160 160 28 28 28 120 240 240
 240 24 24 24 199 199 199 199 37 37 37 37 53 53 53 53 144 144 231 231
 160 231 28 28 28 28 120 120 120 120 24 199 199 199 199 199 199 166 37 37
 194 144 144 144 144 144 144 231 231 231 231 28 28 28 120 120 120 120 120 199
 199 199 199 199 199 199 166 166 166 194 144 144 144 144 144 144 231 231 231 231
 28 28 120 120 120 120 120 120 120 199 199 199 199 199 199 166 166 166 207 144
 144 144 144 144 144 231 231 231 231 28 120 120 120 120 120 120 120 120 199 199
 199 199 199 199 166 202 202 169 169 169 169 144 144 144 144 231 231 231 184 120
 120 120 120 120 120 120 208 208 208 208 202 202 202 202 202 202 169 169 169 169
 169 169 169 144 231 231 184 184 184 184 120 120 120 120 191 191 208 208 208 202
 202 202 202 202 202 202 169 169 169 169 169 169 169 169 184 184 184 184 184 120
 120 191 191 191 191 204 208 202 202 202 202 202 202 202 202 169 169 169 169 169
 169 169 169 184 184 184 184 184 184 120 191 191 191 191 204 204 202 202 202 202
 202 202 202 202 147 232 232 232 232 232 169 184 184 184 184 184 184 184 191 191
 191 191 191 191 204 202 202 202 202 202 202 202 202 147 147 232 232 232 232 232
 184 184 184 184 184 184 184 191 191 191 191 191 187 187 187 202 65 65 65 202
 202 147 147 147 147 232 232 232 102 102 184 139 139 139 139 139 139 191 191 187
 187 187 187 187 187 65 65 65 65 202 147 147 147 147 147 232 102 102 102 102
 139 139 139 139 139 157 157 157 187 187 187 187 187 187 65 65 65 65 230 230
 230 230 230 230 102 102 102 102 102 102 139 139 139 139 157 157 157 157 187 187
 187 187 187 96 96 96 96 230 230 230 230 230 230 230 102 102 102 102 102 139
 139 139 11 157 157 157 157 187 187 187 187 187 96 96 96 4 4 230 230 230
 230 230 230 102 102 102 102 12 12 12 11 11 11 157 157 157 157 187 187 100
 100 96 96 4 4 4 230 230 230 230 230 230 102 102 102 102 12 12 12 12
 11 11 11 157 157 172 100 100 100 100 100 4 4 4 4 4 143 143 143 66
 66 102 102 102 12 12 12 12 12 92 92 92 172 172 172 172 100 100 100 100
 4 4 4 4 4 143 143 143 66 66 66 66 12 12 12 12 12 12 92 92
 92 172 172 172 172 172 100 35 35 35 35 70 70 143 143 143 143 66 66 66
 66 12 12 12 12 12 12 92 92 92 172 172 172 172 172 35 35 35 35 35
 70 70 70 143 143 66 66 66 66 66 12 12 12 12 12 12 217 217 217 172
 172 172 172 172 35 35 35 35 35 70 70 70 143 143 237 66 237 237 237 153
 12 12 12 12 217 217 217 217 172 172 172 172 172 165 165 35 35 35 70 70
 70 237 237 237 237 237 237 237 153 153 153 12 217 217 217 217 217 217 172 172
 172 165 165 165 165 35 35 70 70 128 237 237 237 237 237 237 237 153 153 80
 80 80 217 217 217 217 217 172 172 172 165 165 165 165 122 122 122 128 128 237
 237 237 237 237 237 237 153 153 80 80 80 183 183 183 183 240 240 240 24 24
 165 165 216 216 216 216 216 128 94 94 94 94 94 237 237 160 160 80 80 80
 183 183 183 183 240 240 240 24 24 24 24 216 216 216 216 216 94 94 94 94
 94 94 94 160 160 160 160 80 80 183 183 183 240 240 240 240 24 24 24 24
 216 216 216 216 216 53 53 53 94 94 94 160 160 160 160 160 160 80 183 183
 240 240 240 240 240 24 24 24 24 216 216 216 37 37 53 53 53 53 53 94
 160 160 160 160 160 160 28 28 240 240 240 240 240 240 24 24 24 24 25 37
 37 37 37 37 53 53 53 53 53 160 160 160 160 160 28 28 28 28 28 240
 240 240 240 24 24 199 199 199 199 37 37 37 37 53 53 53 144 144 144 231
 160 160 231 28 28 28 28 28 120 120 240 240 24 199 199 199 199 199 37 37
 37 194 194 144 144 144 144 144 231 231 231 231 28 28 28 28 120 120 120 120
 150 199 199 199 199 199 199 199 37 37 194 144 144 144 144 144 144 231 231 231
 231 28 28 28 28 120 120 120 120 150 199 199 199 199 199 199 199 37 37 194
 144 144 144 144 144 144 231 231 231 231 28 28 28 120 120 120 120 120 150 208
 208 199 199 199 199 199 202 202 169 169 169 169 144 144 144 144 231 231 184 184
 28 120 120 120 120 120 120 208 208 208 208 202 202 202 202 202 202 169 169 169
 169 169 169 144 144 231 231 184 184 184 184 120 120 120 191 191 208 208 208 208
 202 202 202 202 202 202 202 169 169 169 169 169 169 169 169 184 184 184 184 184
 120 120 191 191 191 191 204 208 208 202 202 202 202 202 202 202 169 169 169 169
 169 169 169 184 184 184 184 184 184 184 191 191 191 191 191 204 204 202 202 202
 202 202 202 202 202 147 232 232 232 232 232 232 184 184 184 184 184 184 184 191
 191 191 191 191 204 204 202 202 202 202 202 202 202 147 147 147 147 232 232 232
 232 184 184 139 139 139 139 139 191 191 191 191 191 187 187 187 202 65 65 65
 202 202 147 147 147 147 147 232 232 102 102 139 139 139 139 139 139 191 191 191
 191 187 187 187 187 187 65 65 65 65 202 147 147 147 147 147 232 102 102 102
 139 139 139 139 139 139 139 81 81 187 187 187 187 187 187 65 65 65 65 230
 230 230 230 230 230 230 102 102 102 102 139 139 139 139 139 81 157 157 157 187
 187 187 187 187 96 96 96 96 230 230 230 230 230 230 230 102 102 102 102 139
 139 139 139 139 81 157 157 157 187 187 187 187 96 96 96 96 96 234 230 230
 230 230 230 230 102 102 102 102 139 12 139 139 11 11 157 157 157 187 114 100
 100 100 96 96 96 234 234 230 230 230 230 230 230 102 102 102 102 12 12 12
 12 92 92 92 92 157 114 114 100 100 100 100 234 234 234 234 234 230 230 230
 230 230 102 102 102 12 12 12 12 12 92 92 92 92 172 172 114 100 100 100
 100 234 234 234 234 143 143 143 143 66 66 66 102 12 12 12 12 12 12 92
 92 92 92 172 172 172 100 100 100 35 35 35 70 70 143 143 143 143 66 66
 66 66 12 12 12 12 12 12 92 92 92 92 172 172 172 172 35 35 35 35
 35 70 70 70 143 143 66 66 66 66 66 12 12 136 136 136 12 217 217 217
 172 172 172 172 172 165 35 35 35 35 70 70 70 143 143 237 66 237 237 237
 12 12 136 136 136 217 217 217 217 217 172 172 172 165 165 165 165 35 35 70
 70 70 237 237 237 237 237 237 237 153 136 136 136 136 217 217 217 217 217 172
 172 172 165 165 165 165 165 35 70 70 70 237 237 237 237 237 237 237 153 153
 136 136 136 217 217 217 217 217 172 172 165 165 165 165 165 165 122 70 70 128
 237 237 237 237 237 237 237 153 153 84 84 84 84 183 240 240 240 240 240 24
 165 165 165 165 216 216 9 9 94 94 94 94 94 94 94 94 160 84 84 84
 84 84 240 240 240 240 240 240 24 24 24 24 216 216 216 216 9 9 94 94
 94 94 94 94 160 160 160 84 84 84 84 240 240 240 240 240 240 24 24 24
 64 64 216 9 9 194 194 53 94 94 94 94 94 160 160 160 84 84 84 84
 240 240 240 240 240 240 24 24 24 64 64 216 37 37 194 194 194 53 94 94
 94 94 160 160 160 160 84 28 28 240 240 240 240 240 240 24 24 24 24 64
 37 37 37 37 194 194 53 53 53 53 160 160 160 160 21 28 28 28 28 28
 240 240 240 240 24 24 199 199 199 37 37 37 37 194 194 194 124 124 144 144
 231 160 160 231 28 28 28 28 28 120 240 240 240 24 199 199 199 199 199 37
 37 37 194 194 194 124 144 144 144 231 231 231 231 28 28 28 28 28 120 120
 150 150 150 199 199 199 199 199 199 37 194 194 194 124 124 144 144 144 231 231
 231 231 28 28 28 28 28 120 150 150 150 150 150 199 199 199 199 199 37 194
 194 194 144 144 144 144 144 144 231 231 28 28 28 28 28 120 120 150 150 150
 150 208 208 199 199 182 182 202 7 7 7 169 169 144 144 144 144 231 231 28