# vtk DataFile Version 2.0
Data set from ImportExport Version 6.5.171.b0b162591
ASCII

DATASET RECTILINEAR_GRID
DIMENSIONS 30 30 30
X_COORDINATES 30 float
-1.250000 1.250000 3.750000 6.250000 8.750000 11.250000 13.750000 16.250000 18.750000 21.250000 23.750000 26.250000 28.750000 31.250000 33.750000 36.250000 38.750000 41.250000 43.750000 46.250000 48.750000 
51.250000 53.750000 56.250000 58.750000 61.250000 63.750000 66.250000 68.750000 71.250000 
Y_COORDINATES 30 float
-1.250000 1.250000 3.750000 6.250000 8.750000 11.250000 13.750000 16.250000 18.750000 21.250000 23.750000 26.250000 28.750000 31.250000 33.750000 36.250000 38.750000 41.250000 43.750000 46.250000 48.750000 
51.250000 53.750000 56.250000 58.750000 61.250000 63.750000 66.250000 68.750000 71.250000 
Z_COORDINATES 30 float
-1.250000 1.250000 3.750000 6.250000 8.750000 11.250000 13.750000 16.250000 18.750000 21.250000 23.750000 26.250000 28.750000 31.250000 33.750000 36.250000 38.750000 41.250000 43.750000 46.250000 48.750000 
51.250000 53.750000 56.250000 58.750000 61.250000 63.750000 66.250000 68.750000 71.250000 
CELL_DATA 24389
SCALARS FeatureIds int 1
LOOKUP_TABLE default
 2 2 79 79 79 79 79 79 79 58 58 58 58 58 58 58 198 198 198 198
 198 38 38 192 192 2 2 2 2 2 2 79 79 79 79 79 79 79 58 58
 58 58 58 58 198 198 198 198 198 198 38 38 38 38 2 2 2 2 2 2
 50 79 79 79 79 79 79 58 58 58 58 58 164 164 198 198 198 198 198 38
 38 38 38 2 2 2 2 2 50 50 50 117 79 79 171 171 171 171 58 58
 164 164 164 164 164 198 198 198 38 38 38 38 2 2 2 2 50 50 50 117
 117 117 171 171 171 171 171 93 164 164 164 164 164 164 164 198 198 38 218 218
 218 212 212 212 212 50 50 117 117 117 117 171 171 171 171 171 93 164 164 164
 164 164 164 164 218 218 218 218 218 218 212 212 212 212 117 117 117 117 117 117
 171 171 171 171 171 93 121 121 164 164 164 164 164 218 218 218 218 218 218 212
 212 212 212 240 117 117 117 117 117 171 171 171 171 171 171 121 121 121 121 121
 164 164 218 205 205 218 218 218 240 240 240 240 240 240 117 117 117 117 171 171
 171 171 196 196 121 121 121 121 121 121 121 205 205 205 204 204 204 240 240 240
 240 240 237 237 237 117 117 171 171 171 196 196 196 196 121 121 121 121 121 121
 205 205 204 204 204 204 240 240 240 240 237 237 237 237 156 156 156 196 196 196
 196 196 196 121 121 121 121 121 121 204 204 204 204 204 204 240 240 240 240 237
 237 237 237 237 156 156 196 196 196 196 196 106 121 121 121 121 121 121 44 44
 44 44 44 44 240 240 240 240 237 237 237 237 237 237 156 196 196 196 196 196
 106 121 121 121 121 121 121 44 44 118 118 118 118 240 240 240 237 237 237 237
 237 237 237 237 196 196 196 196 196 106 121 121 121 121 121 44 44 118 118 118
 118 118 226 226 226 237 237 237 237 237 237 237 237 237 196 196 196 196 188 121
 121 121 121 36 36 36 36 118 36 36 36 226 226 226 226 237 237 237 237 237
 237 237 237 196 196 188 188 188 188 109 109 109 36 36 36 36 36 36 36 36
 226 226 226 226 237 237 237 237 237 237 237 237 188 188 188 188 188 188 109 109
 109 36 36 36 36 36 36 36 36 226 226 226 226 155 155 155 155 155 155 155
 155 188 188 188 188 188 39 39 216 216 36 36 36 36 36 36 36 54 54 226
 226 226 155 155 155 155 155 155 155 155 4 4 4 4 39 39 39 216 216 216
 36 36 36 36 36 54 54 54 54 226 226 142 142 155 155 155 155 155 155 4
 4 4 4 39 39 216 216 216 216 216 36 36 36 54 54 54 54 54 142 142
 142 142 142 155 155 155 155 155 4 4 4 4 4 39 216 216 216 216 216 114
 36 89 89 54 54 54 54 142 142 142 142 142 142 155 155 155 150 150 150 4
 4 4 216 216 216 216 216 23 114 114 89 89 89 89 54 115 142 142 142 142
 142 142 155 155 155 150 150 150 150 4 4 28 28 28 28 23 23 23 23 89
 89 89 89 115 115 142 142 142 142 142 142 79 79 243 243 150 150 150 150 28
 28 28 28 28 23 23 23 23 89 89 89 89 115 115 115 142 142 142 142 79
 79 79 243 243 243 150 150 58 81 81 28 28 28 23 23 23 23 89 89 89
 89 115 115 115 115 142 79 79 79 79 79 243 243 243 243 58 58 81 81 81
 28 28 23 23 23 23 89 89 89 89 115 115 115 115 79 79 79 79 79 79
 79 243 243 58 58 58 58 81 81 28 86 23 23 23 23 192 192 192 192 115
 115 115 2 79 79 79 79 79 79 79 79 79 58 58 58 58 58 81 28 86
 23 23 198 23 192 192 192 192 192 2 2 2 79 79 79 79 79 79 79 79
 79 58 58 58 58 58 58 58 183 183 198 198 38 38 192 192 192 192 2 2
 2 2 2 79 79 79 79 79 79 79 58 58 58 58 58 58 183 183 183 198
 198 198 198 38 192 2 2 2 2 2 2 2 79 79 79 79 79 79 79 58
 58 58 58 58 183 183 183 198 198 198 198 198 38 38 2 2 2 2 2 2
 2 50 50 79 79 79 79 79 58 58 58 234 145 145 145 145 145 198 198 198
 198 38 38 2 2 2 2 2 2 50 50 50 50 79 79 171 171 171 171 93
 164 164 164 164 145 145 145 198 198 198 38 38 2 2 2 2 2 50 50 50
 117 117 117 171 171 171 171 171 93 164 164 164 164 164 164 145 145 198 198 218
 218 97 2 2 212 2 50 50 49 117 117 117 171 171 171 171 171 93 93 164
 164 164 164 164 164 145 218 218 218 218 97 97 212 212 212 49 49 49 117 117
 117 171 171 171 171 171 93 93 121 121 164 164 164 164 205 205 205 205 218 97
 97 240 212 240 240 49 49 117 117 117 171 171 171 171 171 93 93 121 121 121
 121 164 164 205 205 205 205 218 97 240 240 240 240 240 49 49 117 117 117 171
 171 171 171 171 93 121 121 121 121 121 121 121 205 205 205 204 204 204 240 240
 240 240 240 237 237 237 117 117 171 171 171 171 196 196 121 121 121 121 121 121
 121 205 204 204 204 204 204 240 240 240 240 240 237 237 237 237 237 237 196 196
 196 196 196 121 121 121 121 121 121 121 204 204 204 204 204 204 240 240 240 240
 237 237 237 237 237 237 237 196 196 196 196 196 121 121 121 121 121 121 121 204
 204 204 118 118 118 240 240 240 240 237 237 237 237 237 237 237 237 196 196 196
 196 121 121 121 121 121 121 121 118 118 118 118 118 118 240 240 240 237 237 237
 237 237 237 237 237 237 196 196 196 196 121 121 121 121 121 121 121 118 118 118
 118 118 118 118 226 226 237 237 237 237 237 237 237 237 237 196 196 196 188 188
 121 121 121 121 121 36 36 118 118 118 36 36 226 226 226 237 237 237 237 237
 237 237 237 237 196 188 188 188 188 188 109 109 109 36 36 36 36 36 36 36
 36 226 226 226 226 237 237 237 237 237 237 237 237 188 188 188 188 188 188 109
 109 109 109 36 36 36 36 36 36 36 226 226 226 226 237 237 237 237 237 237
 237 237 188 188 188 188 188 188 109 109 109 109 36 36 36 36 36 54 54 54
 54 226 226 142 155 155 155 155 155 155 138 188 188 188 188 39 39 39 216 216
 216 36 36 36 36 36 54 54 54 54 54 69 142 142 155 155 155 155 138 138
 15 15 188 188 39 39 39 216 216 216 114 114 36 36 54 54 54 54 54 54
 142 142 142 142 155 155 155 138 138 15 15 15 4 39 39 216 216 216 216 114
 114 114 114 54 54 54 54 54 142 142 142 142 142 142 155 155 138 15 15 15
 15 186 186 216 216 216 216 216 114 114 114 114 89 54 54 115 115 115 142 142
 142 142 142 142 138 138 15 15 15 15 186 186 28 28 28 28 216 114 114 114
 89 89 116 115 115 115 115 142 142 142 142 142 79 79 79 243 150 15 186 186
 186 28 28 28 28 28 23 23 114 116 116 116 115 115 115 115 115 142 142 142
 79 79 79 79 79 243 150 186 186 186 28 28 28 28 23 23 23 23 116 116
 116 115 115 115 115 115 142 79 79 79 79 79 79 79 243 243 58 58 186 86
 86 86 86 23 23 23 23 116 116 116 115 115 115 115 115 79 79 79 79 79
 79 79 79 79 58 58 58 58 86 86 86 86 86 23 23 23 116 116 116 115
 115 115 115 2 2 79 79 79 79 79 79 79 79 58 58 58 58 58 86 86
 86 86 198 198 198 192 192 192 192 115 2 2 2 2 79 79 79 79 79 79
 79 79 58 58 58 58 58 58 86 183 183 198 198 198 38 192 192 192 2 2
 2 2 2 2 79 79 79 79 79 79 79 158 158 234 234 234 183 183 183 183
 183 198 198 198 239 239 2 2 2 2 2 2 50 50 79 79 79 79 79 79
 158 158 234 234 234 183 183 183 183 198 198 198 198 198 239 2 2 2 2 2
 2 50 50 50 79 79 79 79 79 158 234 234 234 234 145 145 145 145 198 198
 198 198 198 239 2 2 2 2 2 50 50 50 50 50 222 222 222 171 171 93
 93 234 145 145 145 145 145 145 145 198 198 198 239 2 2 2 2 2 50 50
 50 50 117 117 171 171 171 171 93 93 93 164 164 164 164 145 145 145 145 145
 97 97 97 2 2 2 2 50 50 49 49 117 117 171 171 171 171 93 93 93
 164 164 164 164 164 164 145 145 205 205 97 97 97 97 2 50 49 49 49 49
 117 117 171 171 171 171 93 93 93 121 85 164 164 164 164 145 205 205 205 97
 97 97 97 240 240 49 49 49 49 117 117 171 171 171 171 93 93 93 121 85
 85 121 121 121 205 205 205 205 97 97 97 240 240 240 240 49 49 49 117 117
 171 171 171 171 93 93 93 121 121 121 121 121 121 205 205 205 204 204 97 240
 240 240 240 240 49 49 49 117 117 171 171 171 171 93 93 121 121 121 121 121
 121 121 205 204 204 204 204 204 240 240 240 240 240 237 237 237 237 237 237 171
 196 196 196 196 121 121 121 121 121 121 121 121 204 204 204 204 204 240 240 240
 240 237 237 237 237 237 237 237 196 196 196 196 196 121 121 121 121 121 121 121
 121 204 204 204 204 204 240 240 240 240 237 237 237 237 237 237 237 237 196 196
 196 196 121 121 121 121 121 121 121 121 118 118 118 118 118 62 62 240 237 237
 237 237 237 237 237 237 237 196 196 196 188 121 121 121 121 121 121 121 118 118
 118 118 118 118 62 62 237 237 237 237 237 237 237 237 237 237 196 196 188 188
 188 121 121 121 121 121 36 36 36 118 36 36 36 62 62 237 237 237 237 237
 237 237 237 237 237 188 188 188 188 188 188 109 109 109 36 36 36 36 36 36
 36 36 111 111 111 237 237 237 237 237 237 237 237 237 188 188 188 188 188 188
 109 109 109 109 36 36 36 36 36 36 36 54 111 111 69 69 69 237 237 237
 237 237 138 188 188 188 188 188 188 109 109 109 109 36 36 36 36 36 54 54
 54 54 69 69 69 69 69 155 155 138 138 138 188 188 188 188 188 39 109 109
 109 109 36 36 36 36 36 54 54 54 54 69 69 69 69 69 155 155 138 138
 138 15 15 188 188 39 39 39 216 216 216 114 114 114 36 54 54 54 54 54
 69 69 69 69 142 155 155 138 138 138 15 15 15 15 39 39 216 216 216 216
 114 114 114 114 54 54 54 54 54 69 69 142 142 142 142 138 138 138 138 15
 15 15 186 186 186 216 216 216 114 114 114 114 114 116 116 115 115 115 115 69
 142 142 142 142 138 138 138 138 15 15 15 186 186 186 28 28 28 114 114 114
 114 114 116 116 115 115 115 115 115 142 142 142 3 79 138 138 138 15 15 186
 186 186 186 28 28 28 28 114 114 114 116 116 116 115 115 115 115 115 142 182
 182 79 79 79 79 138 138 186 186 186 186 186 86 86 86 86 23 114 23 116
 116 116 115 115 115 115 115 182 182 79 79 79 79 79 79 79 186 186 186 186
 86 86 86 86 86 23 23 116 116 116 116 115 115 115 115 115 79 79 79 79
 79 79 79 79 79 158 58 186 186 86 86 86 86 86 86 23 116 116 116 116
 115 115 115 115 115 2 79 79 79 79 79 79 79 79 158 158 58 58 86 86
 86 86 86 86 198 198 6 6 6 6 2 2 2 2 2 2 79 79 79 79
 79 79 79 158 58 58 58 86 86 86 183 183 183 198 198 6 6 6 6 2
 2 2 2 2 50 50 79 79 79 79 79 158 158 158 234 234 234 234 183 183
 183 183 183 198 239 239 239 239 2 2 2 2 2 50 50 50 79 79 79 79
 158 158 158 234 234 234 234 183 183 183 183 198 198 198 239 239 239 2 2 2
 2 50 50 50 50 222 222 222 222 222 158 234 234 234 234 234 145 145 145 145
 145 198 198 239 239 239 2 2 2 2 50 50 50 50 222 222 222 222 222 171
 93 234 234 234 145 145 145 145 145 145 145 145 239 239 239 2 2 2 2 50
 50 50 50 222 222 222 171 171 171 93 93 93 145 145 145 145 145 145 145 145
 145 97 97 97 97 2 2 50 50 50 49 49 49 117 171 171 171 171 93 93
 93 93 164 164 164 145 145 145 145 145 97 97 97 97 97 2 50 50 49 49
 49 49 117 171 171 171 93 93 93 93 93 85 85 164 164 164 145 205 205 97
 97 97 97 97 97 50 49 49 49 49 49 117 171 171 171 93 93 93 93 121
 85 85 85 121 121 205 205 205 205 97 97 97 97 75 75 75 49 49 49 49
 49 171 171 171 93 93 93 93 121 121 121 121 121 121 121 205 205 204 204 97
 97 75 75 75 75 49 49 49 49 49 171 171 171 171 93 93 121 121 121 121
 121 121 121 121 204 204 204 204 75 75 75 75 75 75 237 237 237 237 229 229
 171 171 171 93 93 121 121 121 121 121 121 121 121 204 204 204 204 75 75 75
 75 75 237 237 237 237 237 229 229 229 214 214 214 121 121 121 121 121 121 121
 121 121 204 204 12 12 12 75 75 75 75 237 237 237 237 237 237 237 237 214
 214 214 121 121 121 121 121 121 121 121 121 118 118 118 12 12 62 62 62 62
 237 237 237 237 237 237 237 237 214 214 214 214 121 121 121 121 121 121 121 118
 118 118 118 118 62 62 62 62 62 237 237 237 237 237 237 237 237 214 214 188
 188 188 99 99 99 99 99 36 36 36 36 36 36 36 62 62 62 62 237 237
 237 237 237 237 237 237 188 188 188 188 188 188 99 99 99 99 36 36 36 36
 36 36 36 111 111 111 111 237 237 237 237 237 237 237 237 188 188 188 188 188
 188 109 109 109 109 36 36 36 36 36 36 36 111 111 111 111 69 69 69 237
 237 237 138 138 188 188 188 33 188 188 109 109 109 109 36 36 36 36 36 36
 54 54 111 69 69 69 69 69 69 138 138 138 138 138 188 188 188 188 188 109
 109 109 109 36 36 36 36 36 54 54 54 54 69 69 69 69 69 69 138 138
 138 138 15 15 188 188 188 188 109 109 216 114 114 114 114 114 54 54 54 54
 54 69 69 69 69 69 69 138 138 138 138 15 15 15 15 186 186 216 216 216
 114 114 114 114 114 54 54 54 54 115 69 69 69 69 3 3 3 138 138 138
 15 15 15 186 186 186 216 216 216 114 114 114 114 114 116 116 115 115 115 115
 69 69 3 3 3 3 138 138 138 15 15 15 186 186 186 186 28 28 114 114
 114 114 114 116 116 115 115 115 115 115 69 3 3 3 3 3 138 138 138 15
 186 186 186 186 186 86 86 86 114 114 114 116 116 116 115 115 115 115 115 182
 182 182 182 182 79 138 138 138 186 186 186 186 186 86 86 86 86 114 114 114
 116 116 116 115 115 115 115 115 182 182 182 182 182 79 79 79 158 158 186 186
 186 86 86 86 86 86 86 114 116 116 116 116 115 115 115 115 115 182 182 182
 182 79 79 79 79 158 158 158 186 186 86 86 86 86 86 86 114 6 6 6
 6 6 115 115 115 115 2 79 79 79 79 79 79 79 158 158 158 158 186 86
 86 86 86 86 183 183 6 6 6 6 6 6 2 2 2 2 2 79 79 79
 79 79 79 158 158 158 158 234 86 86 86 183 183 183 183 6 6 6 6 6
 2 2 2 2 2 50 50 50 79 79 79 158 158 158 158 234 234 234 234 234
 183 183 183 183 239 239 239 239 239 2 2 2 2 50 50 50 50 222 222 222
 222 158 158 158 234 234 234 234 234 183 183 183 183 198 239 239 239 239 2 2
 2 2 50 50 50 50 222 222 222 222 222 158 234 234 234 234 234 145 145 145
 145 145 145 239 239 239 239 2 2 2 2 50 50 50 50 222 222 222 222 222
 222 234 234 234 234 234 145 145 145 145 145 145 239 239 239 239 2 2 2 50
 50 50 50 50 222 222 222 222 222 93 93 93 234 234 145 145 145 145 145 145
 145 145 239 97 97 97 97 50 50 50 50 50 49 222 222 222 171 171 93 93
 93 93 93 164 145 145 145 145 145 145 97 97 97 97 97 97 50 50 50 49
 49 49 49 49 171 171 171 93 93 93 93 93 85 85 85 121 121 145 145 97
 97 97 97 97 97 97 50 75 49 49 49 49 49 171 171 171 93 93 93 93
 121 85 85 85 121 121 121 205 205 97 97 97 97 97 75 75 75 49 49 49
 49 49 171 171 171 93 93 93 93 121 121 121 121 121 121 121 205 205 204 97
 97 97 75 75 75 75 49 49 49 49 229 229 171 171 93 93 93 121 121 121
 121 121 121 121 121 204 12 204 71 97 75 75 75 75 75 237 237 237 229 229
 229 229 171 185 185 93 121 121 121 121 121 121 121 121 12 12 12 12 75 75
 75 75 75 75 237 237 237 229 229 229 229 214 214 214 121 121 121 121 121 121
 121 121 121 12 12 12 12 12 75 75 75 75 237 237 237 237 229 229 229 229
 214 214 214 214 121 121 121 121 121 121 121 121 12 12 12 12 12 62 62 62
 62 62 237 237 237 237 229 229 229 214 214 214 214 136 99 99 99 121 121 121
 121 12 12 12 12 62 62 62 62 62 111 237 237 237 237 237 237 214 214 214
 214 214 99 99 99 99 99 99 99 36 36 36 36 47 111 111 62 62 62 111
 237 237 237 237 237 237 214 214 188 188 188 188 99 99 99 99 99 36 36 36
 36 36 36 111 111 111 111 111 69 237 237 237 237 237 237 138 188 188 188 188
 188 188 99 99 99 99 36 36 36 36 36 36 111 111 111 111 111 69 69 69
 69 237 138 138 138 188 188 188 188 188 188 109 109 109 109 36 36 36 36 36
 36 54 111 111 111 69 69 69 69 69 138 138 138 138 138 188 188 188 188 188
 109 109 109 109 114 36 36 36 36 54 54 54 111 69 69 69 69 69 69 138
 138 138 138 138 15 188 188 188 188 109 109 109 114 114 114 114 114 54 54 54
 54 69 69 69 69 69 69 69 138 138 138 138 138 15 15 186 186 186 216 216
 216 114 114 114 114 114 114 54 54 54 115 69 69 69 69 3 3 3 138 138
 138 138 15 15 186 186 186 186 216 216 114 114 114 114 114 116 116 115 115 115
 115 69 69 3 3 3 3 3 138 138 138 15 186 186 186 186 186 28 114 114
 114 114 114 114 116 116 115 115 115 115 115 69 3 3 3 3 3 138 138 138
 186 186 186 186 186 186 86 86 86 114 114 114 116 116 116 115 115 115 115 115
 182 182 182 182 182 3 138 138 138 186 186 186 186 186 86 86 86 86 114 114
 114 116 116 116 115 115 115 115 115 182 182 182 182 182 182 79 158 158 158 158
 186 186 186 86 86 86 86 86 114 116 116 116 116 115 115 115 115 115 182 182
 182 182 182 182 79 158 158 158 158 158 186 86 86 86 86 86 86 86 6 6
 6 6 6 6 115 115 115 2 182 182 182 182 79 79 158 158 158 158 158 158
 86 86 86 86 86 183 183 6 6 6 6 6 6 6 2 2 2 2 182 79
 79 79 79 158 158 158 158 158 234 234 234 86 183 183 183 183 6 6 6 6
 6 6 2 2 2 50 50 50 50 50 222 158 158 158 158 158 234 234 234 234
 234 183 183 183 183 239 239 239 239 239 239 2 2 2 50 50 50 50 222 222
 222 222 158 158 158 234 234 234 234 234 183 183 183 183 239 239 239 239 239 239
 2 2 2 50 50 50 50 222 222 222 222 222 158 234 234 234 234 234 234 145
 145 145 145 145 239 239 239 239 239 2 2 50 50 50 50 50 222 222 222 222
 222 158 234 234 234 234 24 24 145 145 145 145 145 239 239 239 239 239 2 50
 50 50 50 50 50 222 222 222 222 222 222 93 234 234 24 24 24 145 145 145
 145 145 239 239 71 97 71 71 50 50 50 50 50 50 222 222 222 222 219 93
 93 93 53 53 24 24 145 145 145 145 145 71 71 97 97 97 71 71 50 50
 50 49 49 49 49 222 171 113 93 93 93 53 53 53 85 121 121 145 145 71
 71 71 97 97 97 97 71 71 75 49 49 49 49 49 171 171 113 113 93 93
 53 53 121 121 121 121 121 241 241 71 71 71 97 97 71 75 75 75 49 49
 49 49 49 229 171 113 113 93 93 53 121 121 121 121 121 121 121 241 71 71
 71 71 71 75 75 75 75 75 49 49 229 229 229 229 235 113 185 93 121 121
 121 121 121 121 121 121 12 12 71 71 71 75 75 75 75 75 75 229 229 229
 229 229 229 229 185 185 185 185 121 121 121 121 121 121 121 12 12 12 12 71
 75 75 75 75 75 237 237 229 229 229 229 229 214 214 185 185 185 121 121 121
 121 121 121 121 12 12 12 12 70 75 75 75 75 75 237 237 229 229 229 229
 229 214 214 214 185 185 136 136 136 121 121 121 12 12 12 12 12 70 70 62
 62 62 62 237 237 229 229 229 229 229 214 214 214 185 136 136 136 136 99 121
 121 12 12 12 12 12 70 70 62 62 62 111 237 237 237 237 237 229 214 214
 214 214 185 136 99 99 99 99 99 99 36 47 47 47 47 70 70 111 111 111
 111 237 237 237 237 237 229 214 214 214 214 188 188 99 99 99 99 99 99 36
 47 47 47 47 47 111 111 111 111 111 111 237 237 237 237 138 138 188 188 188
 188 188 99 99 99 99 99 99 36 47 47 47 47 124 124 111 111 111 69 69
 69 69 83 138 138 138 138 188 188 188 188 188 109 99 99 99 99 36 47 47
 47 47 124 124 124 111 69 69 69 69 69 138 138 138 138 138 188 188 188 188
 188 109 109 109 99 114 114 114 74 47 124 124 124 76 76 69 69 69 69 69
 138 138 138 138 138 138 188 188 188 188 109 109 109 114 114 114 114 74 74 124
 124 76 76 76 69 69 69 69 69 138 138 138 138 138 138 15 186 186 186 186
 216 114 114 114 114 114 161 161 161 233 233 233 233 69 69 69 3 3 3 138
 138 138 138 138 15 186 186 186 186 186 114 114 114 114 114 161 161 116 115 115
 233 233 233 69 3 3 3 3 3 138 138 138 178 186 186 186 186 186 186 114
 114 114 114 114 161 116 116 116 115 115 233 233 3 3 3 3 3 3 138 138
 138 178 186 186 186 186 186 86 86 86 114 114 114 116 116 116 115 115 115 115
 115 182 182 182 3 3 182 138 138 138 178 186 186 186 186 1 86 86 86 114
 114 114 116 116 116 115 115 115 115 115 182 182 182 182 182 182 138 158 158 158
 158 186 1 1 1 86 86 86 86 114 116 116 6 6 6 115 115 115 115 182
 182 182 182 182 182 158 158 158 158 158 158 1 1 1 86 86 86 86 6 6
 6 6 6 6 6 115 115 2 182 182 182 182 182 182 158 158 158 158 158 158
 158 1 1 86 86 86 183 6 6 6 6 6 6 6 6 2 2 2 182 182
 182 79 79 158 158 158 158 158 158 234 234 234 234 183 183 183 183 6 6 6
 6 6 6 2 2 2 50 50 50 50 222 222 158 158 158 158 158 234 234 234
 234 234 183 183 183 183 239 239 239 239 239 239 2 2 2 50 50 50 50 222
 222 222 222 158 158 158 234 234 234 234 234 24 24 183 149 239 239 239 239 239
 239 2 2 50 50 50 50 50 222 222 222 222 222 158 234 234 234 234 234 24
 24 24 24 145 239 239 239 239 239 239 2 50 50 50 50 50 50 222 222 222
 222 219 219 234 234 234 24 24 24 24 24 24 145 149 239 239 239 239 239 2
 50 50 50 50 50 50 222 222 222 222 219 219 219 234 234 24 24 24 24 24
 24 145 149 71 71 71 71 71 71 50 50 50 50 50 50 222 222 222 219 219
 219 113 53 53 53 24 24 24 24 24 145 149 71 71 71 71 71 71 71 50
 50 50 50 50 49 222 219 219 113 113 113 53 53 53 53 53 121 24 24 241
 241 34 71 71 71 71 71 71 71 75 50 49 49 49 49 113 113 113 113 113
 53 53 53 53 53 121 121 241 241 241 34 34 71 71 71 71 71 75 75 75
 49 49 49 229 235 113 113 113 113 53 53 53 53 121 121 121 241 241 241 34
 34 71 71 71 71 75 75 75 75 49 229 229 229 235 235 235 113 185 185 185
 53 121 121 121 121 241 241 241 34 34 34 71 71 75 75 75 75 75 229 229
 229 229 235 235 235 185 185 185 185 185 121 121 121 121 121 241 12 12 12 34
 71 75 75 75 75 75 75 229 229 229 229 229 235 235 185 185 185 185 185 136
 136 121 121 121 12 12 12 12 12 70 70 75 75 75 75 237 229 229 229 229
 229 235 214 214 185 185 185 136 136 136 136 136 136 12 12 12 12 12 70 70
 70 62 62 62 237 237 229 229 229 229 235 214 214 214 185 136 136 136 136 136
 136 136 223 12 12 12 70 70 70 70 62 62 111 111 237 83 83 229 83 214
 214 214 214 136 136 136 136 99 99 99 99 47 47 47 47 47 70 70 70 111
 111 111 111 237 83 83 83 83 83 214 214 214 188 136 99 99 99 99 99 99
 47 47 47 47 47 47 124 111 111 111 111 111 83 83 83 83 83 83 83 188
 188 188 188 99 99 99 99 99 99 47 47 47 47 47 124 124 124 111 111 69
 69 69 83 83 83 138 138 138 188 188 188 188 99 99 99 99 99 99 209 47
 47 47 124 124 124 124 76 76 69 69 69 69 138 138 138 138 138 138 188 188
 188 188 109 109 109 209 209 209 74 74 74 124 124 124 76 76 76 69 69 69
 69 138 138 138 138 138 138 26 26 26 188 109 165 109 209 209 209 74 74 74
 124 124 76 76 76 76 69 69 69 3 138 138 138 138 138 138 26 26 26 186
 186 165 114 114 114 161 161 161 161 161 124 233 233 233 233 233 69 3 3 3
 138 138 138 138 138 26 26 26 186 186 236 114 114 114 161 161 161 161 161 115
 233 233 233 233 233 3 3 3 3 3 138 138 138 178 178 26 186 186 186 186
 100 114 114 161 161 161 161 161 116 233 233 233 233 233 3 3 3 3 3 138
 138 178 178 178 178 186 1 1 1 86 100 114 161 161 161 161 116 115 115 233
 233 233 182 182 182 182 182 182 138 138 178 178 178 1 1 1 1 1 86 86
 100 161 161 116 116 116 115 115 115 115 233 182 182 182 182 182 182 138 158 158
 158 158 1 1 1 1 1 86 86 199 199 6 6 6 6 6 6 115 107 107
 182 182 182 182 182 182 182 158 158 158 158 158 1 1 1 1 86 86 199 199
 6 6 6 6 6 6 6 107 107 182 182 182 182 182 182 158 158 158 158 158
 158 1 1 1 1 86 86 199 199 6 6 6 6 6 6 6 2 2 2 182
 182 182 182 182 158 158 158 158 158 158 234 234 234 234 183 183 183 199 6 6
 6 6 6 6 2 2 2 30 30 30 30 222 222 158 158 158 158 158 234 234
 234 234 234 24 24 149 149 239 239 239 239 239 239 2 2 50 50 30 30 50
 222 222 222 222 158 158 158 234 234 234 234 24 24 24 149 149 149 239 239 239
 239 239 2 2 50 50 50 50 50 222 222 222 222 219 219 234 234 234 24 24
 24 24 24 149 149 149 149 239 239 239 239 2 50 50 50 50 50 50 222 222
 222 219 219 219 219 234 234 24 24 24 24 24 149 149 149 149 239 239 239 239
 50 50 50 50 50 50 50 222 222 219 219 219 219 219 98 98 24 24 24 24
 24 24 149 149 149 71 71 71 71 71 71 50 50 50 50 50 222 222 219 219
 219 219 219 98 98 98 98 24 24 24 24 149 149 71 71 71 71 71 71 71
 71 50 50 50 50 219 219 219 219 113 113 113 53 53 53 53 53 24 24 24
 241 34 34 71 71 71 71 71 71 71 75 50 49 49 219 219 219 113 113 113
 113 53 53 53 53 53 121 241 241 241 241 34 34 71 71 71 71 71 71 75
 75 49 49 49 235 235 113 113 113 113 53 53 53 53 53 121 121 241 241 241
 34 34 34 71 71 71 71 71 75 75 21 229 229 235 235 235 235 113 113 185
 185 53 53 53 121 121 241 241 241 34 34 34 71 71 71 75 75 75 75 21
 21 229 235 235 235 235 185 185 185 185 185 136 136 121 121 241 241 12 34 34
 34 71 71 71 75 75 75 21 21 229 229 235 235 235 235 185 185 185 185 185
 136 136 136 136 223 223 223 12 12 12 70 70 70 75 75 75 21 21 21 229
 235 235 235 235 185 185 185 185 136 136 136 136 136 223 223 223 12 12 70 70
 70 70 70 70 62 180 21 83 83 235 235 235 235 214 185 185 136 136 136 136
 136 136 223 223 223 47 47 70 70 70 70 70 62 111 111 83 83 83 83 83
 83 214 214 214 136 136 136 136 136 136 136 223 223 223 47 47 47 70 70 70
 70 111 111 111 83 83 83 83 83 83 83 214 214 136 136 136 136 99 99 99
 223 223 47 47 47 47 47 124 124 111 111 111 111 83 83 83 83 83 83 83
 83 188 136 136 165 165 165 165 165 223 223 47 47 47 47 124 124 124 124 111
 69 69 83 83 83 83 83 83 83 83 188 188 165 165 165 165 165 165 209 209
 209 47 47 124 124 124 124 124 76 76 69 69 83 83 83 83 187 187 187 26
 26 26 165 165 165 165 209 209 209 74 74 74 124 124 124 76 76 76 76 69
 69 69 83 187 187 138 138 26 26 26 26 26 165 165 165 209 209 209 74 74
 74 74 124 76 76 76 76 76 69 69 3 138 138 138 138 138 26 26 26 26
 26 165 165 165 209 209 209 161 161 161 161 124 233 233 233 233 233 233 3 3
 3 138 138 138 138 178 26 26 26 26 236 236 100 209 209 161 161 161 161 161
 161 233 233 233 233 233 3 3 3 3 3 138 138 178 178 178 26 26 186 1
 1 100 100 161 161 161 161 161 161 168 168 168 233 233 233 3 3 3 3 3
 138 178 178 178 178 178 1 1 1 1 1 100 100 161 161 161 161 161 168 168
 168 233 233 233 182 182 182 182 182 138 178 178 178 178 1 1 1 1 1 1
 100 100 161 161 161 161 161 168 168 168 107 107 182 182 182 182 182 182 182 178
 178 178 178 1 1 1 1 1 1 100 199 199 199 199 199 6 6 107 107 107
 107 107 182 182 182 182 182 182 77 77 77 77 1 1 1 1 1 1 1 199
 199 199 199 199 6 6 6 107 107 107 107 182 182 182 182 182 77 77 77 77
 77 77 1 1 1 1 1 1 199 199 199 199 199 6 6 6 107 107 107 30
 30 30 182 182 182 158 158 158 158 77 77 234 234 234 1 1 1 199 199 199
 199 199 6 6 6 107 107 107 30 30 30 30 30 30 77 77 77 77 77 77
 234 234 234 24 24 24 149 199 199 199 199 199 239 239 2 30 30 30 30 30
 30 30 222 154 77 77 77 77 77 234 24 24 24 24 24 149 149 149 149 239
 239 239 239 2 30 30 30 30 30 30 222 222 219 219 219 219 219 234 234 24
 24 24 24 24 149 149 149 149 239 239 239 239 30 30 30 50 50 50 50 222
 219 219 219 219 219 219 219 24 24 24 24 24 24 149 149 149 149 149 239 239
 71 71 50 50 50 50 50 50 222 219 219 219 219 127 127 98 98 98 24 24
 24 24 149 149 149 149 149 71 71 71 71 71 50 50 50 50 50 219 219 219
 219 219 127 127 98 98 98 98 24 24 24 149 149 149 149 71 71 71 71 71
 71 71 50 50 50 219 219 219 219 219 219 113 113 98 98 98 98 98 24 24
 241 241 241 34 34 71 71 71 71 71 71 75 50 21 219 219 219 219 219 113
 113 113 98 98 98 98 53 24 241 241 241 241 34 34 34 71 71 71 71 71
 75 21 21 21 235 235 235 235 113 113 113 113 53 53 53 53 53 241 241 241
 241 34 34 34 71 71 71 71 71 75 21 21 21 235 235 235 235 235 113 113
 185 185 53 53 53 217 241 241 241 241 34 34 34 71 71 71 71 71 75 21
 21 21 235 235 235 235 235 235 185 185 185 185 136 136 136 217 241 241 241 34
 34 34 71 71 71 71 71 21 21 21 21 235 235 235 235 235 185 185 185 185
 136 136 136 136 217 223 223 223 34 34 34 215 215 215 215 215 21 21 21 21
 21 235 235 235 235 185 185 185 185 136 136 136 136 223 223 223 223 223 12 215
 215 215 215 215 215 180 180 21 21 83 83 235 235 235 185 185 185 136 136 136
 136 136 223 223 223 223 223 47 215 215 70 215 215 215 180 180 83 83 83 83
 83 83 83 214 214 136 136 136 136 136 136 223 223 223 223 47 47 47 215 70
 70 70 111 111 180 83 83 83 83 83 83 83 83 214 136 136 136 136 165 165
 223 223 223 223 47 47 47 47 124 124 124 111 111 83 83 83 83 83 83 83
 83 83 83 136 136 165 165 165 165 165 223 223 163 47 47 47 124 124 124 124
 111 76 76 83 83 83 83 83 83 83 83 230 230 165 165 165 165 165 165 209
 209 209 163 47 124 124 124 124 124 76 76 76 83 83 83 83 187 187 187 187
 230 230 230 165 165 165 165 209 209 209 209 74 74 124 124 124 76 76 76 76
 76 135 83 83 187 187 187 187 187 230 230 230 165 165 165 165 209 209 209 209
 74 74 74 124 76 76 76 76 76 76 135 135 187 187 187 187 187 26 26 26
 26 26 165 165 165 209 209 209 209 161 161 161 124 233 233 233 233 233 233 3
 3 3 187 187 138 138 178 26 26 26 236 236 236 100 209 209 209 161 161 161
 161 168 168 233 233 233 233 233 3 3 3 3 138 138 178 178 26 26 26 236
 236 236 100 100 100 161 161 161 161 161 168 168 168 233 233 233 3 3 3 122
 122 122 178 178 178 178 26 26 1 236 236 100 100 100 161 161 161 161 161 168
 168 168 168 233 107 182 182 182 122 122 122 178 178 178 178 178 1 1 1 1
 100 100 100 100 161 161 161 161 168 168 107 107 107 107 107 182 182 122 122 122
 77 77 77 77 1 1 1 1 1 100 100 100 199 199 199 199 199 107 107 107
 107 107 107 107 182 182 122 122 122 77 77 77 77 77 1 1 1 1 1 100
 199 199 199 199 199 199 6 107 107 107 107 107 30 30 182 122 122 122 77 77
 77 77 77 1 1 1 1 1 199 199 199 199 199 199 199 6 107 107 107 107
 30 30 30 30 122 122 77 77 77 77 77 77 1 1 1 1 27 199 199 199
 199 199 199 199 6 107 107 107 107 30 30 30 30 30 154 154 154 77 77 77
 77 77 45 45 45 45 149 149 199 199 199 199 199 199 199 30 30 30 30 30
 30 30 30 154 154 154 154 77 77 77 45 45 45 45 45 149 149 149 149 149
 199 199 199 199 30 30 30 30 30 30 30 30 219 219 219 219 77 77 45 45
 45 45 45 24 149 149 149 149 149 149 149 239 239 30 30 30 30 30 30 30
 219 219 219 219 219 127 127 45 45 45 45 45 24 149 149 149 149 149 149 149
 239 71 71 50 50 50 50 50 50 219 219 219 219 219 127 127 98 98 98 45
 45 24 24 149 149 149 149 149 146 71 71 71 71 50 50 50 50 219 219 219
 219 219 219 127 127 98 98 98 98 45 45 24 149 149 149 149 71 146 146 146
 71 71 71 50 50 50 219 219 219 219 219 219 127 127 98 98 98 98 208 208
 24 149 241 149 34 34 146 146 146 146 71 71 21 21 21 21 219 219 219 219
 113 113 113 98 98 98 98 208 208 208 241 241 241 34 34 146 146 146 146 146
 71 21 21 21 21 21 235 235 235 113 113 113 98 98 98 98 208 208 208 241
 241 241 34 34 34 146 146 146 146 71 21 21 21 21 21 235 235 235 235 113
 113 185 98 98 98 217 217 217 221 241 241 34 34 34 71 71 71 71 71 21
 21 21 21 21 235 235 235 235 235 185 185 185 143 136 217 217 217 217 174 174
 34 34 34 71 71 71 71 71 21 21 21 21 21 235 235 235 235 235 185 185
 185 136 136 136 217 217 223 223 223 174 34 215 215 215 215 215 215 21 21 21
 21 21 235 235 235 235 235 185 185 136 136 136 136 217 217 223 223 223 223 223
 215 215 215 215 215 215 180 180 21 21 21 83 83 235 235 235 185 185 136 136
 136 136 136 223 223 223 223 223 47 215 215 215 215 215 215 180 180 83 83 83
 83 83 83 83 83 214 136 136 136 136 136 136 223 223 223 223 223 47 215 215
 215 215 215 215 180 180 83 83 83 83 83 83 83 83 83 136 136 136 165 165
 165 223 223 223 223 163 163 215 215 215 215 215 215 83 83 83 83 83 83 83