# vtk DataFile Version 2.0
Data set from ImportExport Version 6.5.171.b0b162591
ASCII

DATASET RECTILINEAR_GRID
DIMENSIONS 30 30 30
X_COORDINATES 30 float
-1.250000 1.250000 3.750000 6.250000 8.750000 11.250000 13.750000 16.250000 18.750000 21.250000 23.750000 26.250000 28.750000 31.250000 33.750000 36.250000 38.750000 41.250000 43.750000 46.250000 48.750000 
51.250000 53.750000 56.250000 58.750000 61.250000 63.750000 66.250000 68.750000 71.250000 
Y_COORDINATES 30 float
-1.250000 1.250000 3.750000 6.250000 8.750000 11.250000 13.750000 16.250000 18.750000 21.250000 23.750000 26.250000 28.750000 31.250000 33.750000 36.250000 38.750000 41.250000 43.750000 46.250000 48.750000 
51.250000 53.750000 56.250000 58.750000 61.250000 63.750000 66.250000 68.750000 71.250000 
Z_COORDINATES 30 float
-1.250000 1.250000 3.750000 6.250000 8.750000 11.250000 13.750000 16.250000 18.750000 21.250000 23.750000 26.250000 28.750000 31.250000 33.750000 36.250000 38.750000 41.250000 43.750000 46.250000 48.750000 
51.250000 53.750000 56.250000 58.750000 61.250000 63.750000 66.250000 68.750000 71.250000 
CELL_DATA 24389
SCALARS FeatureIds int 1
LOOKUP_TABLE default
 82 82 82 3 3 3 3 3 3 3 249 41 41 41 167 167 167 167 167 167
 167 17 17 17 17 17 17 17 17 82 82 82 3 3 3 3 3 3 249 249
 249 41 41 41 167 167 167 167 167 167 17 17 17 17 17 17 54 54 82 82
 82 128 128 3 3 3 3 249 249 249 249 41 167 167 167 167 167 109 109 17
 17 17 17 17 54 54 54 82 82 82 128 128 128 3 3 3 249 249 249 249
 249 167 167 167 167 109 109 109 109 17 17 54 54 54 54 202 82 82 82 128
 128 128 128 128 3 249 249 249 249 249 167 167 27 27 109 109 109 109 54 54
 54 54 54 202 202 82 82 82 128 128 128 128 128 128 249 249 249 249 249 27
 27 27 27 27 27 109 186 186 186 54 54 202 202 202 202 82 82 128 128 128
 128 128 128 128 249 249 249 238 27 27 27 27 27 27 27 186 186 186 54 54
 202 202 202 202 82 82 128 128 128 128 128 128 170 170 170 170 170 238 27 27
 27 27 27 186 186 186 186 186 54 202 202 202 202 82 119 119 119 119 119 119
 170 170 170 170 170 170 238 238 27 27 27 27 186 186 186 186 186 186 177 177
 177 202 119 119 119 119 119 119 119 119 170 170 170 170 170 170 238 27 27 27
 186 186 186 186 186 186 186 177 177 177 202 119 119 119 119 119 119 119 170 170
 170 170 170 170 170 238 27 96 96 96 186 186 186 186 186 186 39 177 177 87
 13 13 13 119 119 119 119 251 251 251 251 251 251 251 251 126 252 252 252 252
 252 252 39 39 39 39 39 39 87 87 87 13 13 119 119 251 251 251 251 251
 251 251 251 251 33 252 252 252 252 252 252 39 39 39 39 39 39 87 87 87
 87 102 102 102 102 251 251 251 251 251 251 251 251 33 252 252 252 252 252 252
 252 39 39 39 39 39 87 87 87 87 102 102 102 102 251 251 251 251 251 251
 251 33 33 252 252 252 252 252 252 252 39 39 39 39 160 87 87 87 87 102
 102 102 102 102 251 251 251 251 251 251 33 33 252 252 252 252 252 252 252 39
 39 160 160 160 87 87 87 102 102 102 102 102 102 251 251 251 251 251 231 231
 231 231 252 252 252 252 35 35 35 160 160 160 160 196 196 196 102 102 102 102
 102 102 102 43 43 43 231 231 231 231 231 231 231 252 35 35 35 35 160 160
 160 160 196 196 196 102 102 102 102 102 102 102 43 43 43 231 231 231 231 231
 231 231 231 35 35 35 35 35 160 160 196 196 196 196 196 102 102 102 102 102
 43 43 43 43 89 89 231 231 231 231 231 231 35 35 35 35 35 93 196 196
 196 196 196 196 102 102 102 102 29 43 43 43 89 89 89 89 231 231 231 231
 231 35 35 35 35 241 241 196 196 196 196 196 196 102 102 29 29 29 29 43
 43 89 89 89 89 89 231 231 231 231 35 35 35 188 241 241 241 241 241 196
 196 196 102 102 29 29 29 29 43 43 89 89 89 89 89 213 213 213 213 188
 188 188 241 241 241 241 241 241 241 106 106 197 123 123 29 29 29 43 43 178
 178 178 178 213 213 213 213 213 188 188 188 241 241 241 241 241 241 106 106 106
 106 123 123 123 123 123 199 199 178 178 178 178 178 213 213 213 213 213 188 241
 241 241 241 241 241 106 106 106 106 106 110 110 110 110 199 199 199 178 178 178
 178 178 178 213 213 213 17 148 148 148 241 208 208 208 106 106 106 106 106 110
 110 110 110 199 199 199 199 178 79 79 79 79 79 79 79 17 148 148 148 148
 208 208 208 106 106 106 106 106 110 110 110 110 199 199 199 199 79 79 79 79
 167 167 167 167 17 148 148 148 148 148 208 208 106 106 106 106 106 110 110 110
 199 199 199 199 79 79 79 79 167 167 167 167 167 17 17 17 17 148 148 148
 208 82 82 82 217 217 217 3 3 3 199 199 199 41 41 167 167 167 167 167
 167 107 107 17 17 17 17 17 98 98 82 82 82 217 217 217 3 3 3 249
 249 249 41 41 41 167 167 167 167 167 107 107 17 17 17 17 17 54 54 82
 82 82 217 217 217 3 3 3 249 249 249 249 41 41 167 167 167 167 109 109
 107 17 17 17 17 54 54 54 82 82 82 128 128 128 128 3 3 249 249 249
 249 249 167 167 167 167 109 109 109 109 17 17 54 54 54 54 54 82 82 82
 128 128 128 128 128 128 249 249 249 249 249 167 167 167 167 109 109 109 109 54
 54 54 54 54 54 202 82 82 82 128 128 128 128 128 128 249 249 249 249 249
 238 27 27 27 109 109 109 186 186 54 54 54 54 202 202 82 82 82 128 128
 128 128 128 128 128 249 238 238 238 238 238 27 27 27 27 186 186 186 186 54
 54 54 202 202 202 82 82 128 128 128 128 128 128 170 170 170 238 238 238 238
 27 27 27 186 186 186 186 179 186 54 202 202 202 202 82 82 128 128 128 128
 128 170 170 170 170 170 238 238 238 238 27 96 96 186 186 186 186 186 186 202
 202 202 202 82 119 119 119 119 119 119 170 170 170 170 170 170 238 238 238 96
 96 96 186 186 186 186 186 186 202 177 202 13 13 13 13 119 119 119 191 170
 170 170 170 170 170 238 238 126 96 96 96 186 186 186 186 186 186 39 177 202
 13 13 13 13 13 191 191 191 251 251 251 251 251 251 251 251 126 33 252 252
 252 252 186 186 39 39 39 39 39 87 13 13 13 13 191 191 191 251 251 251
 251 251 251 251 251 33 33 252 252 252 252 252 39 39 39 39 39 39 87 87
 87 87 102 102 102 102 251 251 251 150 251 251 251 33 33 33 252 252 252 252
 252 252 39 39 39 160 160 87 87 87 87 102 102 102 102 251 251 251 251 251
 251 251 33 33 33 252 252 252 252 252 252 39 39 160 160 160 87 87 87 87
 102 102 102 102 102 251 251 251 251 251 251 33 33 33 252 252 252 252 252 252
 39 160 160 160 160 87 87 87 102 102 102 102 102 102 251 43 43 251 251 251
 33 33 33 252 252 252 252 58 35 160 160 160 160 160 196 196 196 102 102 102
 102 102 102 43 43 43 43 43 231 231 231 231 231 231 58 58 35 35 35 160
 160 160 160 196 196 196 102 102 102 102 102 102 43 43 43 43 43 231 231 231
 231 231 231 58 58 35 35 35 160 160 160 196 196 196 196 196 102 102 102 102
 102 43 43 43 43 89 89 231 231 231 231 231 231 35 35 35 188 93 93 93
 196 196 196 196 196 102 102 102 102 43 43 43 43 43 89 89 89 231 231 231
 231 231 188 188 188 188 93 93 93 196 196 196 196 196 102 102 123 123 123 43
 43 43 43 89 89 89 89 231 231 231 231 188 188 188 188 241 241 241 241 241
 66 196 196 197 123 123 123 123 123 43 43 43 89 89 89 89 89 213 231 231
 188 188 188 188 241 241 241 241 241 66 66 197 197 123 123 123 123 123 123 43
 178 178 178 178 89 89 213 213 213 188 188 188 188 241 241 241 241 241 66 106
 106 197 123 123 123 123 123 199 199 178 178 178 178 178 178 213 213 213 188 188
 188 241 241 241 241 241 106 106 106 106 110 110 110 110 110 199 199 199 199 178
 178 178 178 178 178 178 178 107 188 148 241 241 241 241 241 106 106 106 106 110
 110 110 110 110 199 199 199 199 199 79 79 79 79 79 79 107 107 17 148 98
 98 98 98 98 106 106 106 106 110 110 110 110 110 199 199 199 199 79 79 79
 79 167 167 167 107 107 17 148 98 98 98 98 98 106 106 106 106 110 110 110
 110 199 199 199 199 199 79 79 79 167 167 167 167 107 107 17 17 17 17 98
 98 98 82 82 217 217 217 217 217 3 199 199 199 199 41 41 167 167 167 167
 167 107 107 107 107 17 17 17 98 98 98 82 82 217 217 217 217 217 217 3
 249 249 249 41 41 41 167 167 167 167 107 107 107 107 17 17 17 98 98 98
 82 82 217 217 217 217 217 217 3 249 249 249 249 41 41 167 167 167 167 109
 107 107 17 17 17 17 54 54 54 82 82 82 217 217 217 217 217 217 249 249
 249 249 249 167 167 167 167 109 109 109 107 17 17 54 54 54 54 54 82 82
 82 128 128 128 128 128 128 249 249 249 249 249 167 167 167 167 109 109 109 109
 54 54 54 54 54 54 202 82 82 82 128 128 128 128 128 128 249 249 249 249
 238 238 238 27 27 109 109 109 186 186 54 54 54 54 202 202 82 82 82 128
 128 128 128 128 128 128 249 238 238 238 238 238 238 27 27 109 186 186 186 186
 54 54 54 202 202 202 82 82 128 128 128 128 128 128 170 170 170 238 238 238
 238 238 96 96 96 186 186 186 186 186 54 54 202 202 50 50 50 128 128 128
 128 128 170 170 170 170 170 238 238 238 238 96 96 96 96 186 186 186 186 186
 54 202 202 50 50 13 13 191 191 191 191 170 170 170 170 170 238 238 238 238
 96 96 96 96 186 186 186 186 186 54 177 202 13 13 13 13 191 191 191 191
 191 170 170 170 170 170 238 238 126 96 96 96 96 186 186 186 186 186 54 38
 38 13 13 13 13 191 191 191 191 191 251 251 251 251 251 251 126 126 126 96
 96 96 252 186 186 186 39 39 38 38 13 13 13 13 191 191 191 191 191 251
 251 251 251 251 251 33 33 33 33 252 252 252 252 252 39 39 39 39 160 87
 87 13 13 191 191 191 191 251 251 251 251 251 251 251 33 33 33 33 252 252
 252 252 252 39 39 160 160 160 87 87 87 87 102 102 102 102 251 251 251 251
 251 251 251 33 33 33 33 252 252 252 252 252 39 15 160 160 160 87 87 87
 87 102 102 102 102 102 251 251 251 251 251 33 33 33 33 33 252 252 252 58
 58 15 15 160 160 160 87 87 87 102 102 102 102 102 102 43 43 43 43 43
 33 33 33 33 33 252 58 58 58 58 58 160 160 160 160 196 196 196 102 102
 102 102 102 102 43 43 43 43 43 33 33 33 33 231 58 58 58 58 58 58
 160 160 160 160 196 196 196 102 102 102 102 102 102 43 43 43 43 43 231 231
 231 231 231 231 58 58 58 58 58 93 93 93 196 196 196 196 196 102 102 102
 102 102 43 43 43 43 43 89 231 231 231 231 231 58 58 58 188 188 93 93
 93 196 196 196 196 196 102 102 102 102 43 43 43 43 43 43 89 89 231 231
 231 231 231 188 188 188 188 93 93 93 93 196 196 196 196 102 123 123 123 123
 43 43 43 43 89 89 89 89 231 231 231 231 188 188 188 188 188 93 93 93
 66 66 66 196 197 123 123 123 123 123 43 43 43 89 89 89 89 89 231 231
 188 188 188 188 188 188 241 241 241 66 66 66 197 197 123 123 123 123 123 123
 43 129 89 89 89 89 89 213 231 188 188 188 188 188 241 241 241 241 66 66
 66 66 197 123 123 123 123 123 199 199 199 205 178 178 178 178 213 213 188 188
 188 188 188 241 241 241 241 66 66 66 110 110 110 110 110 110 199 199 199 199
 199 178 178 79 79 79 79 79 188 188 98 98 98 98 241 241 106 66 106 110
 110 110 110 110 110 199 199 199 199 199 79 79 79 79 79 79 107 107 98 98
 98 98 98 98 98 106 106 106 110 110 110 110 110 110 199 199 199 199 199 79
 79 79 167 167 167 107 107 107 98 98 98 98 98 98 106 106 106 110 110 110
 110 110 110 199 199 199 199 199 79 79 167 167 167 167 107 107 107 17 17 98
 98 98 98 217 217 217 217 217 217 217 217 199 199 199 199 199 199 167 167 167
 167 167 107 107 107 107 107 17 17 98 98 98 217 217 217 217 217 217 217 217
 217 199 199 199 41 41 167 167 167 167 167 107 107 107 107 17 17 17 98 98
 98 82 82 217 217 217 217 217 217 217 249 249 249 249 41 167 167 167 167 167
 107 107 107 107 17 17 17 54 54 54 82 82 217 217 217 217 217 217 217 249
 249 249 249 249 167 167 167 167 167 109 107 107 107 17 54 54 54 54 54 82
 82 82 217 217 217 217 217 217 249 249 249 249 249 167 167 167 167 167 109 107
 107 107 54 54 54 54 54 50 50 82 82 128 128 128 128 128 128 249 249 238
 238 238 238 238 120 120 120 109 109 186 186 54 54 54 54 54 50 50 50 50
 128 128 128 128 128 128 128 238 238 238 238 238 238 120 120 96 96 96 186 186
 186 54 54 54 54 50 50 50 50 128 128 128 128 128 128 170 170 238 238 238
 238 238 238 96 96 96 96 186 186 186 186 54 54 50 50 50 50 50 50 128
 128 128 128 128 170 170 238 238 238 238 238 96 96 96 96 96 186 186 186 186
 186 54 50 50 50 50 50 191 191 191 191 191 191 170 170 170 238 238 238 238
 126 96 96 96 96 96 186 186 186 186 54 50 50 38 13 13 191 191 191 191
 191 191 191 170 170 170 170 238 126 126 96 96 96 96 96 186 186 186 186 38
 38 38 38 13 13 13 191 191 191 191 191 191 251 251 251 251 126 126 126 126
 96 96 96 96 96 186 186 38 38 38 38 38 13 13 13 191 191 191 191 191
 251 251 251 251 251 251 126 126 126 126 96 96 7 7 7 38 38 38 38 38
 38 38 13 13 191 191 191 191 191 251 251 251 251 251 251 33 33 33 33 33
 252 252 252 7 15 15 15 38 38 15 87 87 87 191 191 191 191 22 22 251
 251 251 251 33 33 33 33 33 33 252 252 252 252 15 15 15 15 15 15 87
 87 87 204 204 204 204 22 22 22 251 251 251 33 33 33 33 33 33 252 58
 58 58 15 15 15 15 15 15 87 87 204 204 204 204 204 22 22 22 43 43
 43 33 33 33 33 33 33 58 58 58 58 58 15 15 15 15 196 87 87 204
 204 204 204 204 22 43 43 43 43 43 43 33 33 33 33 58 58 58 58 58
 58 15 15 15 15 196 196 196 204 204 204 204 204 102 43 43 43 43 43 92
 92 92 92 92 58 58 58 58 58 58 93 93 93 93 196 196 196 196 204 204
 204 102 102 43 43 43 43 43 89 92 92 92 231 231 58 58 58 188 188 93
 93 93 93 196 196 196 196 102 102 102 102 43 43 43 43 43 43 89 89 231
 231 231 231 231 188 188 188 188 93 93 93 93 196 66 196 197 197 197 123 123
 123 43 43 43 43 43 89 89 89 231 231 231 188 188 188 188 188 188 93 93
 93 66 66 66 197 197 197 123 123 123 123 129 129 43 43 89 89 89 89 231
 231 188 188 188 188 188 188 93 241 241 66 66 66 197 197 197 123 123 123 123
 129 129 129 205 205 205 89 89 231 227 188 188 188 188 188 188 241 241 241 66
 66 66 197 197 197 123 123 123 123 129 129 205 205 205 205 178 178 23 23 23
 188 188 188 188 241 241 241 241 66 66 66 197 110 110 110 110 110 199 199 199
 199 205 205 205 79 79 79 23 23 107 188 98 98 98 98 98 241 66 66 66
 110 110 110 110 110 110 199 199 199 199 199 205 79 79 79 79 23 23 107 107
 98 98 98 98 98 98 66 66 110 110 110 110 110 110 110 199 199 199 199 199
 79 79 79 167 167 107 107 107 107 98 98 98 98 98 98 66 66 110 110 110
 110 110 110 199 199 199 199 199 199 79 79 167 167 167 107 107 107 107 107 51
 98 98 98 98 151 151 151 151 217 217 217 217 199 199 199 199 199 199 167 167
 167 167 167 107 107 107 107 107 51 51 51 98 98 151 151 151 151 217 217 217
 217 217 199 199 199 199 41 167 167 167 167 167 107 107 107 107 107 17 17 51
 98 98 151 151 151 151 217 217 217 217 217 11 249 249 249 41 167 167 167 167
 167 107 107 107 107 107 17 17 54 98 50 50 151 151 151 217 217 217 217 217
 11 11 249 249 249 167 167 167 167 167 107 107 107 107 107 54 54 54 54 50
 50 50 50 217 217 217 217 217 217 11 249 249 249 238 238 120 120 120 120 120
 107 107 107 67 54 54 54 50 50 50 50 50 50 217 217 217 217 11 11 238
 238 238 238 238 120 120 120 120 120 67 67 67 67 67 67 54 50 50 50 50
 50 50 128 128 128 128 128 11 238 238 238 238 238 238 120 120 120 96 96 67
 67 67 67 67 54 50 50 50 50 50 50 128 128 128 128 128 238 238 238 238
 238 238 238 96 96 96 96 96 67 67 67 67 67 67 50 50 50 50 50 50
 191 191 191 191 191 238 238 238 238 238 238 238 96 96 96 96 96 96 67 67
 67 67 67 50 50 50 50 50 191 191 191 191 191 191 191 170 238 238 238 238
 238 126 96 96 96 96 96 67 67 67 67 67 50 50 38 16 191 191 191 191
 191 191 191 191 170 170 170 238 238 126 126 126 96 96 96 96 96 67 67 67
 38 38 38 38 38 191 191 191 191 191 191 191 191 171 251 251 127 126 126 126
 126 126 96 96 96 96 67 67 38 38 38 38 38 38 13 191 191 191 191 191
 191 191 251 251 251 127 126 126 126 126 126 96 96 7 7 7 7 38 38 38
 38 38 38 13 191 159 159 159 191 191 22 22 251 251 251 127 127 33 33 33
 33 7 7 7 7 7 38 38 38 38 38 38 87 191 159 159 159 191 22 22
 22 22 251 127 33 33 33 33 33 33 7 7 7 7 15 15 15 15 38 15
 87 87 204 204 204 204 22 22 22 22 22 22 127 33 33 33 33 33 33 58
 58 58 58 15 15 15 15 15 15 87 87 204 204 204 204 204 22 22 22 22
 43 43 33 33 33 33 33 33 58 58 58 58 58 15 15 15 15 15 87 204
 204 204 204 204 204 22 22 22 43 43 43 92 92 92 92 92 58 58 58 58
 58 58 15 15 15 15 196 196 196 204 204 204 204 204 22 43 43 43 43 43
 92 92 92 92 92 92 58 58 58 58 58 93 93 93 93 93 196 196 204 204
 204 204 204 43 43 43 43 43 43 92 92 92 92 92 92 58 58 58 188 188
 93 93 93 93 93 196 196 197 197 204 204 123 43 43 43 43 43 43 92 92
 92 92 92 92 92 188 188 188 188 93 93 93 93 234 66 197 197 197 197 123
 123 123 43 43 43 43 43 92 92 92 92 92 92 92 188 188 188 188 93 93
 93 234 66 66 197 197 197 197 123 123 123 129 129 129 129 129 89 227 227 227
 227 227 188 188 188 188 188 234 234 234 234 66 66 66 197 197 197 123 123 123
 129 129 129 129 205 205 205 227 227 227 227 188 188 188 188 188 234 234 234 234
 66 66 66 197 197 197 123 123 123 129 129 129 205 205 205 205 205 73 23 23
 23 23 188 188 188 51 234 234 241 66 66 66 197 197 110 110 110 110 199 199
 205 205 205 205 205 205 79 23 23 23 23 51 51 51 51 98 98 98 66 66
 66 197 110 110 110 110 110 199 199 199 199 205 205 205 79 79 75 23 23 23
 51 51 51 51 98 98 98 201 201 110 110 110 110 110 110 110 199 199 199 199
 199 205 79 79 167 75 23 23 107 51 51 51 51 98 98 98 201 201 110 110
 110 110 110 110 110 199 199 199 199 199 79 167 167 167 167 107 107 107 107 51
 51 51 98 98 98 230 151 151 151 151 217 217 217 11 250 250 250 250 250 250
 167 167 167 167 107 107 107 107 107 51 51 51 98 98 151 151 151 151 151 217
 217 11 11 11 250 250 250 250 250 167 167 167 167 107 107 107 107 107 51 51
 51 98 98 151 151 151 151 151 217 217 11 11 11 11 250 250 250 250 167 167
 167 167 107 107 107 107 107 56 56 56 56 50 151 151 151 151 151 217 217 11
 11 11 11 11 250 250 167 167 120 120 120 120 107 107 107 67 56 56 56 50
 50 50 50 50 151 217 217 217 11 11 11 11 11 11 238 238 120 120 120 120
 120 107 107 67 67 67 67 56 50 50 50 50 50 50 217 217 217 11 11 11
 11 238 238 238 238 120 120 120 120 120 120 67 67 67 67 67 67 50 50 50
 50 50 50 50 128 128 11 11 11 11 238 238 238 238 120 120 120 120 96 96
 67 67 67 67 67 67 50 50 50 50 50 50 50 50 191 191 191 100 238 238
 238 238 238 238 120 96 96 96 96 67 67 67 67 67 67 50 50 50 50 50
 50 191 191 191 191 191 100 100 238 238 238 238 238 40 96 96 96 96 96 67
 67 67 67 67 50 50 16 16 16 191 191 191 191 191 191 191 100 238 238 238
 238 126 126 96 96 96 96 96 67 67 67 67 67 50 50 16 16 16 191 191
 191 191 191 191 191 171 171 171 238 126 126 126 126 96 96 96 96 96 67 67
 67 38 38 38 38 38 191 191 191 191 191 191 191 171 171 171 171 127 127 126
 126 126 126 96 96 96 96 67 67 38 38 38 38 38 38 191 191 191 191 191
 191 191 171 171 171 171 127 127 127 126 126 126 96 7 7 7 7 7 20 38
 38 38 38 38 191 191 159 159 159 191 191 171 171 171 171 127 127 127 127 126
 126 96 7 7 7 7 20 20 38 38 38 38 38 191 191 159 159 159 191 22
 22 22 22 171 127 127 127 127 33 33 33 7 7 7 169 169 169 38 38 38
 38 108 108 108 159 159 159 22 22 22 22 22 22 127 127 127 33 33 33 33
 58 169 169 169 169 169 15 15 38 182 182 108 204 204 204 204 22 22 22 22
 22 22 22 127 33 33 33 33 33 58 58 169 169 169 169 15 15 182 182 182
 182 204 204 204 204 204 22 22 22 22 43 43 92 92 92 92 92 92 58 58
 58 169 169 169 15 182 182 182 182 8 204 204 204 204 204 22 22 43 43 43
 43 92 92 92 92 92 92 58 58 58 58 169 93 93 93 182 93 8 8 197
 204 204 204 204 43 43 43 43 43 43 92 92 92 92 92 92 92 58 58 188
 188 93 93 93 93 234 234 197 197 197 197 197 123 223 223 43 43 43 43 92
 92 92 92 92 92 92 188 188 188 188 234 234 234 234 234 246 197 197 197 197
 197 123 223 223 129 129 129 43 227 227 92 92 227 227 227 188 188 188 188 234
 234 234 234 234 246 197 197 197 197 197 123 123 129 129 129 129 129 227 227 227
 227 227 227 227 188 188 188 188 234 234 234 234 246 246 197 197 197 197 197 123
 123 129 129 129 129 205 205 205 73 73 73 227 227 188 188 188 188 234 234 234
 234 246 246 246 197 197 197 197 123 123 129 129 129 205 205 205 205 73 73 73
 23 23 23 23 188 51 234 234 234 234 246 246 246 197 197 110 110 110 110 129
 129 205 205 205 205 205 205 75 23 23 23 23 23 51 51 51 51 51 98 246
 246 246 197 110 110 110 110 110 199 199 199 205 205 205 205 75 75 75 23 23
 23 23 51 51 51 51 51 98 201 201 201 110 110 110 110 110 110 199 199 199
 199 205 205 205 75 75 75 23 23 23 23 51 51 51 51 51 98 201 201 201
 229 229 229 110 110 110 199 199 199 199 199 205 75 75 75 75 75 107 107 107
 51 51 51 51 51 98 230 230 151 229 229 229 229 229 250 250 250 250 250 250
 250 75 75 75 75 75 107 107 107 51 51 51 51 51 51 230 151 151 151 151
 217 217 11 11 11 250 250 250 250 250 75 75 75 75 107 107 107 107 107 56
 56 56 56 230 230 151 151 151 151 217 11 11 11 11 11 250 250 250 250 167
 167 167 167 107 107 107 107 56 56 56 56 56 56 50 151 151 151 151 217 11
 11 11 11 11 11 250 250 250 120 120 120 120 120 107 107 107 56 56 56 56
 56 50 50 50 50 151 151 217 11 11 11 11 11 11 11 238 120 120 120 120
 120 120 120 67 67 67 56 56 56 50 50 50 50 50 244 244 217 11 11 11
 11 11 11 238 238 238 120 120 120 120 120 120 67 67 67 67 67 56 50 50
 50 50 50 244 244 244 97 11 11 100 100 100 100 238 238 120 120 120 120 96
 96 67 67 67 67 67 67 50 50 50 50 50 244 244 244 191 97 100 100 100
 100 100 238 238 40 40 40 96 96 96 67 67 67 67 67 67 50 50 50 16
 16 244 244 191 191 191 100 100 100 100 100 238 238 40 40 40 96 96 96 96
 67 67 67 67 67 50 50 16 16 16 16 191 191 191 191 191 100 100 100 233
 233 40 40 40 40 96 96 96 96 67 67 67 67 67 16 16 16 16 16 191
 191 191 191 191 191 191 171 171 171 233 126 126 126 126 96 96 96 96 96 67
 67 67 38 16 16 38 16 16 191 191 191 191 191 191 171 171 171 171 127 127
 127 126 126 126 96 96 96 96 7 20 38 38 38 38 38 38 191 191 191 191
 191 191 171 171 171 171 171 127 127 127 127 126 126 96 7 7 7 7 20 20
 20 38 38 38 38 191 191 159 159 159 191 171 171 171 171 171 127 127 127 127
 127 126 96 7 7 7 7 20 20 20 38 38 38 108 108 108 159 159 159 191
 22 171 171 171 171 127 127 127 127 127 33 7 7 7 7 169 169 20 20 38
 38 108 108 108 108 159 159 159 22 22 22 22 22 171 127 127 127 127 127 33
 33 169 169 169 169 169 169 182 182 182 182 108 108 108 204 204 204 22 22 22
 22 22 22 127 127 92 92 92 92 92 58 169 169 169 169 169 182 182 182 182
 182 8 8 204 204 204 22 22 22 22 22 43 43 92 92 92 92 92 92 92
 169 169 169 169 169 182 182 182 182 182 8 8 204 204 204 84 22 22 43 43
 43 43 92 92 92 92 92 92 92 200 58 169 169 169 182 182 182 8 8 8
 8 197 204 204 223 223 223 223 43 43 43 92 92 92 92 92 92 92 200 200
 200 234 234 234 234 234 234 8 8 197 197 197 197 223 223 223 223 223 43 43
 227 227 227 227 227 227 227 200 188 188 234 234 234 234 234 234 246 246 197 197
 197 197 223 223 223 223 129 129 129 227 227 227 227 227 227 227 227 188 188 234
 234 234 234 234 246 246 246 197 197 197 197 223 223 223 223 129 129 129 227 227
 227 227 227 227 227 227 188 188 234 234 234 234 234 246 246 246 197 197 197 197
 123 223 129 129 129 129 129 205 73 73 73 73 73 227 23 23 188 234 234 234
 234 234 246 246 246 197 197 197 197 123 123 129 129 129 205 205 205 205 73 73
 73 23 23 23 23 51 51 234 234 234 246 246 246 246 197 197 229 110 110 110
 129 129 205 205 205 205 205 75 75 23 23 23 23 23 51 51 51 51 51 246
 201 201 246 229 229 229 229 110 110 199 199 205 205 205 205 205 75 75 75 23
 23 23 23 51 51 51 51 51 51 201 201 201 229 229 229 229 229 110 199 199
 199 205 205 205 75 75 75 75 23 23 23 23 51 51 51 51 51 51 201 201
 201 229 229 229 229 229 229 250 250 250 250 199 205 75 75 75 75 75 107 107
 23 51 51 51 51 51 51 230 230 230 230 229 229 175 175 175 250 250 250 250
 250 250 75 75 75 75 75 107 107 107 51 51 51 51 51 230 230 230 230 230
 230 175 175 175 11 11 250 250 250 250 250 75 75 75 75 75 107 107 56 56
 56 56 56 56 230 230 230 230 151 151 175 175 11 11 11 11 250 250 250 250
 75 75 242 75 242 107 107 56 56 56 56 56 56 56 230 230 230 151 151 175
 11 11 11 11 11 11 250 250 250 250 120 242 120 120 107 56 56 56 56 56
 56 56 56 50 50 50 151 244 11 11 11 11 11 11 11 11 250 250 120 120
 120 120 120 120 67 56 56 56 56 56 56 50 50 50 50 244 244 244 11 11
 11 11 11 11 11 238 99 120 120 120 120 120 120 67 67 67 56 56 56 50
 50 50 50 244 244 244 244 97 97 97 100 100 100 100 100 99 40 120 120 120
 96 96 67 67 67 67 67 56 50 50 50 50 244 244 244 244 97 97 97 100
 100 100 100 233 233 40 40 40 40 96 96 67 67 67 67 67 67 50 50 16
 16 16 244 244 244 97 97 97 100 100 100 100 233 233 40 40 40 40 96 96
 96 67 67 67 67 67 16 16 16 16 16 16 191 191 191 191 97 100 100 100
 233 233 233 40 40 40 40 96 96 96 67 67 67 67 16 16 16 16 16 16
 16 191 191 191 191 191 171 100 233 233 233 209 209 40 40 96 96 96 96 96
 67 67 67 16 16 16 16 16 16 191 191 191 191 191 171 171 171 171 171 209
 209 209 209 126 126 96 96 96 96 169 20 20 38 38 16 38 16 16 191 191
 191 191 191 171 171 171 171 171 127 127 127 127 127 126 96 7 7 7 169 20
 20 20 38 38 38 108 108 191 191 191 191 191 171 171 171 171 171 127 127 127
 127 127 127 127 7 7 7 169 20 20 20 38 38 108 108 108 108 159 159 159
 191 171 171 171 171 171 127 127 127 127 127 127 169 169 169 169 169 169 20 20
 38 38 108 108 108 108 159 159 159 22 22 171 171 171 171 127 127 127 127 127
 127 169 169 169 169 169 169 169 169 182 182 182 108 108 108 108 84 84 84 22
 22 22 22 171 127 71 71 71 92 92 92 169 169 169 169 169 169 182 182 182
 182 182 8 8 8 84 84 84 84 22 22 22 71 71 71 71 71 92 92 92
 200 200 169 169 169 169 182 182 182 182 8 8 8 8 84 84 84 84 22 22
 22 43 71 71 71 92 92 92 92 200 200 200 103 103 103 182 182 182 8 8
 8 8 8 8 84 223 223 223 223 223 223 227 227 227 227 227 227 227 200 200
 200 200 103 234 234 234 8 8 8 8 8 197 197 223 223 223 223 223 223 223
 227 227 227 227 227 227 227 200 200 200 200 234 234 234 234 234 246 246 246 197
 197 197 197 223 223 223 223 223 129 227 227 227 227 227 227 227 227 200 200 200
 234 234 234 234 234 246 246 246 197 197 197 197 223 223 223 223 129 129 129 227
 227 73 227 227 227 227 200 200 200 234 234 234 234 234 246 246 246 246 197 197
 197 88 223 223 129 129 129 129 205 73 73 73 73 73 227 23 23 30 30 234
 234 234 246 246 246 246 246 197 197 197 88 223 223 129 129 205 205 205 73 73
 73 73 23 23 23 23 30 30 30 30 234 246 246 246 246 246 229 229 229 229
 229 129 129 205 205 205 205 205 75 75 23 23 23 23 23 30 30 30 30 30
 246 201 201 201 229 229 229 229 229 229 199 205 205 205 205 205 75 75 75 75
 23 23 23 23 30 30 30 30 30 201 201 201 201 229 229 229 229 229 229 250
 250 250 205 205 205 75 75 75 75 75 23 23 23 51 51 51 51 51 201 201
 201 201 229 229 229 229 229 229 250 250 250 250 205 205 75 75 75 75 75 23
 23 23 51 51 51 51 51 201 230 230 230 230 230 175 175 175 175 250 250 250
 250 250 250 75 75 75 75 75 75 56 56 56 56 56 56 230 230 230 230 230
 230 230 175 175 175 175 11 250 250 250 250 250 75 75 75 75 75 75 56 56
 56 56 56 56 56 230 230 230 230 230 230 175 175 175 11 11 11 250 250 250
 250 242 242 242 242 242 242 56 56 56 56 56 56 56 230 230 230 230 230 230
 175 175 11 11 11 11 11 250 250 250 242 242 242 242 242 242 56 56 56 56
 56 56 56 56 50 50 50 230 244 175 11 11 11 11 11 11 11 250 99 242
 242 242 242 242 184 56 56 56 56 56 56 56 56 50 50 244 244 244 97 97
 97 11 11 11 100 100 99 99 99 242 120 120 184 184 184 56 56 56 56 56
 56 50 50 50 244 244 244 97 97 97 97 100 100 100 100 99 99 99 40 40
 40 184 184 67 67 67 67 56 56 50 50 16 16 244 244 244 97 97 97 97
 100 100 100 100 233 233 40 40 40 40 96 96 67 67 67 67 67 67 50 16
 16 16 16 244 244 97 97 97 97 100 100 100 233 233 233 40 40 40 40 96
 96 96 67 67 67 67 114 16 16 16 16 16 16 244 191 97 97 97 100 100
 233 233 233 233 209 40 40 40 96 96 96 67 67 67 114 16 16 16 16 16
 16 16 191 191 191 191 97 100 100 233 233 233 209 209 209 40 40 96 96 96
 96 67 67 114 114 16 16 16 16 16 16 191 191 191 191 171 171 171 171 233
 209 209 209 209 209 209 96 96 96 96 169 20 20 20 38 16 16 16 16 68
 68 68 191 191 171 171 171 171 232 209 209 209 209 209 126 96 7 7 7 169
 20 20 20 38 38 108 108 108 68 68 68 68 68 171 171 171 171 232 127 127
 127 127 127 127 127 7 169 169 169 20 20 20 38 38 108 108 108 68 68 68
 68 68 171 171 171 171 232 127 127 127 127 127 127 169 169 169 169 169 169 20
 20 38 38 108 108 108 108 68 68 84 84 84 171 171 171 171 127 127 127 127
 127 127 169 169 169 169 169 169 169 169 182 182 182 108 108 108 108 84 84 84
 84 84 22 22 32 71 71 71 71 71 71 200 169 169 169 103 169 169 182 182
 182 182 8 8 8 8 84 84 84 84 84 22 32 71 71 71 71 71 71 71
 200 200 200 103 103 103 103 182 182 182 8 8 8 8 8 84 84 84 84 84
 32 32 32 71 71 71 71 71 227 200 200 200 200 103 103 103 182 182 182 8
 8 8 8 8 8 84 84 223 223 223 223 32 181 227 227 227 227 227 200 200
 200 200 200 103 103 234 8 8 8 8 8 8 8 8 84 223 223 223 223 223
 223 227 227 227 227 227 227 227 200 200 200 200 103 234 234 234 8 116 116 116
 146 146 146 223 223 223 223 223 223 223 227 227 227 227 227 227 227 200 200 200
 200 234 234 234 234 234 246 246 246 146 146 146 88 88 223 223 223 223 129 227
 227 227 73 73 227 227 227 200 200 200 234 234 234 234 246 246 246 246 146 146
 146 88 88 88 223 223 129 129 129 227 73 73 73 73 73 227 23 23 30 30
 30 30 234 246 246 246 246 246 146 197 88 88 88 223 129 129 205 205 205 73
 73 73 73 23 23 23 23 30 30 30 30 30 246 201 201 201 201 229 229 229
 229 88 88 129 205 205 205 205 75 75 75 75 23 23 23 23 30 30 30 30
 30 201 201 201 201 201 229 229 229 229 229 229 205 205 205 205 205 75 75 75
 75 23 23 23 23 30 30 30 30 30 201 201 201 201 201 229 229 229 229 229
 250 250 250 205 205 205 75 75 75 75 75 23 23 23 30 30 30 30 30 201
 201 201 201 201 229 229 229 175 175 250 250 250 250 250 75 75 75 75 75 75
 23 23 23 91 51 30 51 201 201 230 230 230 230 230 175 175 175 175 194 250
 250 250 250 21 21 75 75 75 75 75 56 56 56 56 56 56 230 230 230 230
 230 230 230 175 175 175 175 194 250 250 250 250 250 242 242 242 242 242 242 56
 56 56 56 56 56 56 230 230 230 230 230 230 175 175 175 11 11 11 250 250
 250 242 242 242 242 242 242 242 56 56 56 56 56 56 56 230 230 230 230 230
 230 175 175 175 11 11 11 11 250 250 242 242 242 242 242 242 242 2 56 56
 56 56 56 56 230 230 230 230 230 230 97 175 11 11 11 11 11 99 99 99
 242 242 242 242 242 184 2 2 56 56 56 56 56 56 50 50 244 244 244 97
 97 97 97 11 11 11 99 99 99 99 242 242 242 184 184 184 2 2 56 56
 56 56 56 50 50 244 244 244 97 97 97 97 97 100 100 99 99 99 99 99
 242 242 184 184 184 184 2 2 56 56 56 50 16 16 16 244 244 97 97 97
 97 97 100 100 99 99 99 99 40 40 40 184 184 184 184 184 2 56 114 114
 114 16 16 16 244 244 97 97 97 97 97 100 100 233 233 233 233 40 40 222
 222 222 184 184 184 114 114 114 114 114 16 16 16 16 244 97 97 97 97 97
 100 233 233 233 233 209 209 40 222 222 222 222 184 184 114 114 114 114 114 16
 16 16 16 191 191 191 97 97 97 100 233 233 233 209 209 209 209 222 222 222
 222 222 184 114 114 114 114 16 16 16 16 68 68 68 68 68 171 171 232 232
 232 209 209 209 209 209 209 222 222 222 222 169 20 114 114 114 16 153 153 153
 68 68 68 68 68 171 171 232 232 232 232 209 209 209 209 209 222 222 169 169