# vtk DataFile Version 2.0
Data set from ImportExport Version 6.5.171.b0b162591
ASCII

DATASET RECTILINEAR_GRID
DIMENSIONS 30 30 30
X_COORDINATES 30 float
-1.250000 1.250000 3.750000 6.250000 8.750000 11.250000 13.750000 16.250000 18.750000 21.250000 23.750000 26.250000 28.750000 31.250000 33.750000 36.250000 38.750000 41.250000 43.750000 46.250000 48.750000 
51.250000 53.750000 56.250000 58.750000 61.250000 63.750000 66.250000 68.750000 71.250000 
Y_COORDINATES 30 float
-1.250000 1.250000 3.750000 6.250000 8.750000 11.250000 13.750000 16.250000 18.750000 21.250000 23.750000 26.250000 28.750000 31.250000 33.750000 36.250000 38.750000 41.250000 43.750000 46.250000 48.750000 
51.250000 53.750000 56.250000 58.750000 61.250000 63.750000 66.250000 68.750000 71.250000 
Z_COORDINATES 30 float
-1.250000 1.250000 3.750000 6.250000 8.750000 11.250000 13.750000 16.250000 18.750000 21.250000 23.750000 26.250000 28.750000 31.250000 33.750000 36.250000 38.750000 41.250000 43.750000 46.250000 48.750000 
51.250000 53.750000 56.250000 58.750000 61.250000 63.750000 66.250000 68.750000 71.250000 
CELL_DATA 24389
SCALARS FeatureIds int 1
LOOKUP_TABLE default
 67 67 67 67 67 1 157 157 157 157 157 157 157 131 131 131 131 188 188 188
 188 111 111 111 111 111 111 67 67 67 1 1 1 1 1 157 157 157 157 157
 157 157 131 131 131 131 131 188 188 188 111 111 111 111 111 111 67 67 1 1
 1 1 1 1 1 157 157 157 157 157 157 131 131 131 131 131 136 136 136 138
 138 138 138 138 138 138 67 1 1 1 1 1 1 1 157 157 157 157 112 112
 131 131 131 131 131 136 136 136 138 138 138 138 138 138 138 195 1 1 1 1
 1 1 1 178 178 178 178 112 112 112 131 131 131 131 136 136 136 138 138 138
 138 138 138 195 195 195 195 195 1 1 1 178 178 178 178 178 112 112 112 112
 131 131 131 119 119 119 138 138 138 138 138 138 195 195 195 195 195 195 1 178
 178 178 178 178 178 178 112 112 112 112 131 119 119 119 119 119 155 155 155 155
 155 195 195 195 195 195 195 195 178 178 178 178 178 178 178 112 112 112 112 119
 119 119 119 119 119 155 155 155 155 155 195 195 163 163 163 163 163 163 178 178
 178 178 178 178 178 112 112 189 119 119 119 119 119 119 155 155 155 155 163 163
 163 163 163 163 163 163 163 178 178 178 178 178 178 178 189 189 189 189 189 189
 119 119 119 62 62 62 62 163 163 163 163 163 163 163 163 163 178 178 178 178
 178 178 178 189 189 189 189 189 189 189 189 62 62 62 62 62 62 163 163 163
 163 163 163 56 56 56 245 245 178 178 178 189 189 189 189 189 189 189 189 189
 62 62 62 62 62 62 87 163 163 163 163 56 56 56 56 56 56 245 245 232
 189 189 189 189 189 189 189 189 62 62 62 62 62 62 62 87 87 152 152 152
 56 56 56 56 56 56 232 232 232 232 189 189 189 189 189 189 189 62 62 62
 62 62 62 123 87 87 152 152 152 56 56 56 56 56 56 196 196 232 232 232
 189 189 189 189 189 189 62 62 62 62 123 123 123 123 87 152 152 152 152 56
 56 56 56 196 196 196 232 232 232 107 107 107 107 107 107 107 62 62 123 123
 123 123 123 152 152 152 152 152 56 56 56 196 196 196 196 183 183 183 107 107
 107 107 107 107 107 109 62 123 123 123 123 123 85 85 152 152 152 56 56 196
 196 196 196 183 183 183 183 183 107 107 107 107 107 109 109 109 109 123 123 85
 85 85 85 85 85 85 187 196 196 196 196 196 183 183 183 183 107 107 107 107
 107 107 109 109 109 109 109 85 85 85 85 85 85 85 85 187 187 196 196 196
 196 183 183 183 183 107 107 107 107 107 107 109 109 109 109 158 85 85 85 85
 85 85 85 85 187 187 187 187 177 177 177 177 177 177 227 227 227 227 227 227
 227 109 109 109 158 85 85 85 85 85 85 85 85 187 187 187 177 177 177 177
 177 177 177 227 227 227 227 227 227 227 109 109 109 158 85 85 85 85 85 85
 86 86 86 105 105 105 177 177 177 177 177 177 177 227 227 227 227 227 227 109
 3 3 193 193 85 85 85 67 67 86 86 86 105 105 105 177 177 177 177 177
 177 177 227 227 227 227 227 227 175 193 193 193 193 193 85 85 67 67 86 86
 86 86 105 105 105 177 177 177 177 177 177 227 227 227 227 188 188 188 175 193
 193 193 193 67 67 67 67 86 86 86 86 105 105 105 177 177 177 177 177 177
 81 166 166 188 188 188 188 188 121 121 121 121 67 67 67 67 67 86 86 86
 105 105 105 157 177 177 177 177 81 81 166 166 188 188 188 188 188 121 121 121
 121 121 67 67 67 67 67 67 67 105 157 157 157 157 157 177 81 81 81 166
 166 188 188 188 188 111 111 121 121 121 121 67 67 67 67 67 67 67 157 157
 157 157 157 157 157 81 81 81 166 166 188 188 188 111 111 111 111 121 121 121
 67 67 67 67 67 1 1 157 157 157 157 157 157 157 131 131 131 131 166 188
 188 188 111 111 111 111 121 121 36 67 67 1 1 1 1 1 1 157 157 157
 157 157 157 131 131 131 131 131 188 188 188 138 138 138 138 138 143 36 67 1
 1 1 1 1 1 1 157 157 157 157 157 157 131 131 131 131 131 131 136 136
 138 138 138 138 138 138 138 92 1 1 1 1 1 1 1 157 157 157 157 112
 112 131 131 131 131 131 131 136 136 138 138 138 138 138 138 92 92 92 1 1
 1 1 1 1 178 178 178 178 112 112 112 131 131 131 131 131 136 138 138 138
 138 138 138 138 92 92 195 195 195 1 1 1 178 178 178 178 178 112 112 112
 112 131 131 131 119 119 119 138 138 138 138 138 138 92 92 195 195 195 195 195
 178 178 178 178 178 178 178 112 112 112 112 131 119 119 119 119 119 138 138 138
 138 92 92 195 195 195 195 195 195 195 178 178 178 178 178 178 112 112 112 112
 112 119 119 119 119 119 155 155 155 155 92 92 195 163 163 163 163 163 163 178
 178 178 178 178 178 178 112 112 112 119 119 119 119 119 119 155 155 155 38 163
 163 163 163 163 163 163 163 245 245 178 178 178 178 178 178 112 189 189 189 119
 119 119 119 119 62 62 62 62 163 163 163 163 163 163 163 163 245 245 245 245
 178 178 178 178 174 189 189 189 189 189 189 62 62 62 62 62 62 62 163 163
 163 163 163 163 163 245 245 245 245 245 178 178 174 174 189 189 189 189 189 189
 62 62 62 62 62 62 62 163 163 163 163 163 163 56 56 245 245 245 245 245
 232 174 174 189 189 189 189 189 189 62 62 62 62 62 62 62 12 87 163 152
 152 56 56 56 56 245 245 232 232 232 232 232 189 189 189 189 189 189 62 62
 62 62 62 62 123 12 12 152 152 152 56 56 56 56 56 245 232 232 232 232
 232 232 107 189 189 107 107 62 62 62 62 123 123 123 123 123 152 152 152 152
 56 56 56 196 196 196 232 232 232 232 232 107 107 107 107 107 107 62 62 123
 123 123 123 123 152 152 152 152 152 56 56 196 196 196 196 196 183 183 232 229
 107 107 107 107 107 107 62 62 123 123 123 123 123 85 85 152 152 152 56 196
 196 196 196 196 183 183 183 183 229 107 107 107 107 107 107 109 109 123 123 123
 123 85 85 85 85 85 187 187 187 196 196 196 196 183 183 183 183 229 107 107
 107 107 107 109 109 109 109 109 85 85 85 85 85 85 85 187 187 187 187 196
 51 51 51 183 183 183 229 107 107 107 107 107 107 109 109 109 158 85 85 85
 85 85 85 85 187 187 187 187 187 51 51 51 51 177 183 227 227 227 227 227
 227 227 109 3 3 3 85 85 85 85 85 85 198 187 187 187 187 187 51 51
 177 177 177 177 227 227 227 227 227 227 227 3 3 3 3 3 85 85 85 85
 198 220 217 105 105 105 105 105 177 177 177 177 177 227 227 227 227 227 227 227
 175 3 3 3 193 85 85 85 67 67 217 217 105 105 105 105 105 177 177 177
 177 177 241 227 227 227 227 227 175 175 175 3 193 193 193 85 85 67 67 217
 217 105 105 105 105 105 105 177 177 177 241 241 241 227 227 227 188 188 175 175
 175 193 193 193 36 36 67 67 217 217 105 105 105 105 105 105 177 177 241 241
 241 241 166 166 188 188 188 188 175 175 121 121 121 36 36 67 67 67 67 105
 105 105 105 105 105 241 241 241 241 241 241 166 166 188 188 188 188 188 121 121
 121 121 36 36 67 67 67 67 67 105 105 105 157 157 157 241 241 241 241 166
 166 166 188 188 188 188 111 121 121 121 121 36 36 67 67 67 67 67 105 105
 157 157 157 157 157 241 81 81 166 166 166 188 188 188 188 111 111 121 121 121
 36 36 67 1 1 1 1 1 157 157 157 157 157 157 157 131 131 131 131 166
 188 188 188 188 138 138 143 143 143 36 36 1 1 1 1 1 1 157 157 157
 157 157 157 157 131 131 131 131 131 188 188 188 138 138 138 138 143 143 36 36
 1 1 1 1 1 1 1 157 157 157 157 157 157 131 131 131 131 131 131 136
 138 138 138 138 138 138 143 36 92 103 103 1 1 1 1 1 157 157 157 157
 112 112 131 131 131 131 131 131 136 138 138 138 138 138 138 138 92 92 103 103
 1 1 1 1 1 178 178 178 178 112 112 112 131 131 131 131 131 119 138 138
 138 138 138 138 138 92 92 103 103 92 1 1 1 178 178 178 178 178 112 112
 112 112 131 131 131 119 119 119 79 138 138 138 138 138 92 92 92 92 92 92
 92 92 178 178 178 178 178 178 112 112 112 112 131 119 119 119 119 119 138 138
 138 138 92 92 92 92 92 92 92 92 92 178 178 178 178 178 178 112 112 112
 112 119 119 119 119 119 119 119 155 38 38 92 92 92 92 92 92 92 92 92
 178 178 178 178 178 178 178 112 112 112 119 119 119 119 119 119 119 62 38 38
 38 92 92 163 163 163 163 163 245 245 245 178 178 178 178 178 174 174 174 119
 119 119 119 119 119 62 62 62 38 38 163 163 163 163 163 163 163 245 245 245
 245 178 178 178 174 174 174 174 189 189 189 119 62 62 62 62 62 62 62 163
 163 163 163 163 163 163 245 245 245 245 245 245 174 174 174 174 174 66 66 66
 62 62 62 62 62 62 62 62 163 163 163 163 163 163 56 245 245 245 245 245
 245 174 174 174 174 174 66 66 66 66 62 62 62 62 62 62 12 12 12 12
 163 163 163 56 245 245 245 245 232 232 232 232 174 174 174 66 66 66 66 62
 62 62 62 62 62 12 12 12 12 152 152 56 56 151 151 151 151 232 232 232
 232 232 7 7 66 66 66 107 62 62 62 62 123 123 123 12 12 152 152 152
 152 151 151 151 151 196 232 232 232 232 232 7 229 107 107 107 107 107 62 62
 123 123 123 123 123 12 152 152 152 172 151 151 151 196 196 196 196 232 232 232
 229 229 107 107 107 107 107 74 62 123 123 123 123 123 123 85 152 172 172 187
 151 151 196 196 196 196 183 183 183 229 229 107 107 107 107 107 74 74 123 123
 123 123 123 85 85 85 85 187 187 187 187 196 196 51 51 183 183 183 229 229
 107 107 107 107 74 74 74 74 74 85 85 85 85 85 85 187 187 187 187 187
 187 51 51 51 51 183 183 229 229 107 107 107 107 74 74 74 74 3 85 85
 85 85 85 198 198 187 187 187 187 187 51 51 51 51 51 183 229 227 227 227
 227 227 74 74 3 3 3 3 85 85 85 198 198 198 187 187 187 187 187 51
 51 51 51 51 227 227 227 227 227 227 227 175 3 3 3 3 3 3 85 85
 198 198 220 217 105 105 105 105 105 51 177 177 177 241 227 227 227 227 227 227
 175 175 3 3 3 3 3 85 85 217 217 217 217 105 105 105 105 105 105 177
 241 241 241 241 227 227 227 227 227 175 175 175 175 175 3 193 36 36 217 217
 217 217 105 105 105 105 105 105 241 241 241 241 241 241 227 227 227 175 175 175
 175 175 175 175 36 36 36 36 217 217 217 217 105 105 105 105 105 241 241 241
 241 241 241 241 166 188 188 188 175 175 175 121 121 36 36 36 36 67 217 217
 217 105 105 105 105 105 241 241 241 241 241 241 166 166 188 188 188 188 175 121
 121 121 36 36 36 36 67 217 217 217 105 105 105 105 157 157 241 241 241 241
 241 166 166 188 188 188 188 188 121 121 121 36 36 36 36 67 67 217 217 105
 105 105 157 157 157 157 241 241 241 166 166 166 188 188 188 188 188 111 121 143
 143 36 36 67 1 1 1 1 1 157 157 157 157 157 168 168 104 104 104 104
 104 188 188 188 188 138 138 143 143 143 36 36 103 1 1 1 1 1 157 157
 157 157 157 157 157 104 104 104 104 131 188 188 188 138 138 138 143 143 143 36
 36 103 1 1 1 1 1 1 157 157 157 157 157 104 104 104 104 104 131 131
 79 79 138 138 138 138 138 143 36 36 103 103 103 1 1 1 1 157 157 157
 157 112 112 104 104 104 104 104 104 79 79 79 138 138 138 138 138 92 92 103
 103 103 1 1 1 1 178 178 178 178 112 112 112 104 104 104 104 104 79 79
 79 79 138 138 138 138 92 92 103 103 103 92 92 92 69 178 178 178 178 178
 112 112 112 104 104 104 119 79 79 79 79 79 138 138 92 92 92 92 92 92
 92 92 69 69 178 178 178 178 178 112 112 112 104 104 119 119 119 79 79 79
 79 138 38 92 92 92 92 92 92 92 92 69 69 178 178 178 178 178 178 112
 112 104 104 119 119 119 154 79 79 79 38 38 38 92 92 92 92 92 92 92
 69 69 178 178 178 178 178 178 112 112 104 154 154 154 154 154 154 79 38 38
 38 38 92 92 92 92 92 92 92 245 245 245 245 178 178 178 178 174 174 174
 174 154 154 154 154 154 62 62 38 38 38 92 92 163 163 163 92 92 245 245
 245 245 245 178 178 174 174 174 174 174 66 154 154 154 62 62 62 62 38 38
 163 163 163 163 163 163 245 245 245 245 245 245 245 174 174 174 174 174 66 66
 66 66 62 62 62 62 62 62 12 12 163 12 163 163 163 245 245 245 245 245
 245 245 174 174 174 174 174 66 66 66 66 62 62 62 62 62 62 12 12 12
 12 12 163 163 245 245 245 245 245 232 232 232 232 174 174 66 66 66 66 124
 124 62 62 62 62 62 12 12 12 12 12 172 172 151 151 151 151 151 232 232
 232 232 7 7 7 66 66 124 124 124 124 62 62 62 123 12 12 12 12 172
 172 172 151 151 151 151 151 232 232 232 232 7 7 229 77 77 124 124 124 124
 236 236 123 123 123 12 12 172 172 172 172 151 151 151 151 151 196 232 232 232
 7 229 229 77 77 77 124 124 124 236 236 123 123 123 123 12 172 172 172 172
 172 151 151 151 196 196 196 232 232 7 229 229 77 77 77 77 74 74 74 74
 123 123 123 123 85 85 198 172 187 187 187 187 51 51 51 51 51 183 229 229
 229 77 77 77 77 74 74 74 74 74 162 162 162 85 198 198 198 187 187 187
 187 187 51 51 51 51 183 229 229 229 77 77 77 77 74 74 74 74 3 162
 162 162 85 198 198 198 187 187 187 187 187 51 51 51 51 51 229 229 227 227
 227 227 227 74 74 3 3 3 3 3 85 198 198 198 198 187 187 187 187 187
 51 51 51 51 51 241 227 227 227 227 227 175 175 175 3 3 3 3 3 198
 198 198 198 220 220 220 105 105 105 105 51 51 241 241 241 241 227 227 227 227
 175 175 175 3 3 3 3 3 3 198 198 220 220 220 105 105 105 105 105 105
 241 241 241 241 241 241 227 227 227 175 175 175 175 175 175 3 3 36 36 217
 217 217 217 105 105 105 105 105 105 105 241 241 241 241 241 241 227 175 175 175
 175 175 175 175 175 36 36 36 217 217 217 217 217 105 105 105 105 105 168 241
 241 241 241 241 241 166 188 175 175 175 175 175 175 36 36 36 36 36 217 217
 217 217 105 105 105 105 105 168 168 241 241 241 241 166 166 188 188 188 175 175
 175 121 36 36 36 36 36 36 217 217 105 105 105 105 105 168 168 168 168 241
 241 241 166 166 188 188 188 188 175 143 143 143 36 36 36 36 36 217 217 105
 105 105 105 157 168 168 168 168 168 241 241 166 166 188 188 188 188 188 143 143
 143 143 36 36 78 78 1 1 161 201 201 157 157 168 168 168 168 104 104 104
 104 104 61 61 61 27 27 143 143 143 143 36 36 78 78 1 1 1 201 201
 157 157 157 157 168 168 104 104 104 104 104 61 61 61 79 138 138 143 143 143
 36 78 92 103 103 1 1 201 201 201 157 157 157 44 104 104 104 104 104 104
 104 79 79 79 79 79 138 138 143 78 78 92 103 103 103 201 201 201 201 157
 44 44 104 104 104 104 104 104 104 104 79 79 79 79 79 138 138 213 213 92
 103 103 103 103 201 201 201 69 69 178 178 104 104 104 104 104 104 104 79 79
 79 79 79 79 79 138 213 213 92 92 103 103 92 92 69 69 69 69 178 178
 178 112 104 104 104 104 104 79 79 79 79 79 79 79 79 92 92 92 92 92
 92 92 92 69 69 69 69 178 178 178 112 104 104 104 104 104 154 79 79 79
 79 79 79 38 38 92 92 92 92 92 92 92 69 69 69 69 178 178 178 178
 112 104 104 104 154 154 154 154 79 79 79 38 38 38 92 92 92 92 92 92
 92 69 69 69 69 178 178 178 178 112 104 104 154 154 154 154 154 154 79 38
 38 38 38 38 92 92 92 92 92 92 245 245 245 245 178 178 178 174 174 174
 174 154 154 154 154 154 154 154 38 38 38 38 38 92 92 92 92 92 92 245
 245 245 245 245 178 174 174 174 174 174 174 154 154 154 154 62 62 38 38 38
 38 38 92 92 92 92 92 245 245 245 245 245 245 245 174 174 174 174 174 66
 66 66 66 154 62 62 139 38 38 38 38 92 12 92 92 92 245 245 245 245
 245 245 245 110 174 174 174 66 66 66 66 66 66 139 139 139 139 139 12 12
 12 12 12 172 172 151 151 151 151 151 151 232 232 110 110 110 66 66 66 66
 124 124 139 139 139 139 139 12 12 12 12 172 172 172 151 151 151 151 151 232
 232 232 7 7 7 7 66 66 124 124 124 124 139 139 139 236 12 12 12 12
 172 172 172 151 151 151 151 151 151 232 232 7 7 7 7 77 124 124 124 124
 124 236 236 236 236 236 12 12 172 172 172 172 172 151 151 151 151 151 232 232
 7 7 7 229 77 77 124 124 124 124 236 236 236 236 236 236 12 172 172 172
 172 172 151 151 151 151 151 232 232 7 7 229 229 77 77 77 124 124 74 74
 74 236 236 236 236 236 198 198 172 172 187 187 187 187 51 51 51 51 7 7
 229 229 77 77 77 77 74 74 74 74 162 162 162 162 162 198 198 198 187 187
 187 187 187 51 51 51 51 7 7 229 229 77 77 77 77 74 74 74 74 162
 162 162 162 162 198 198 198 187 187 187 187 187 51 51 51 51 51 128 229 229
 227 227 227 74 74 74 74 3 3 162 162 162 198 198 198 198 220 187 187 187
 187 51 51 51 51 51 128 130 130 130 227 227 175 175 175 3 3 3 3 162
 198 198 198 198 220 220 220 187 21 21 21 51 51 241 241 130 130 130 130 130
 175 175 175 175 175 3 3 3 3 198 198 198 220 220 220 220 105 105 105 105
 105 241 241 241 241 130 130 130 130 175 175 175 175 175 175 175 175 175 36 198
 220 220 220 220 105 105 105 105 105 105 105 241 241 241 241 130 130 130 175 175
 175 175 175 175 175 175 36 36 36 36 217 217 217 105 105 105 105 105 105 168
 168 241 241 241 241 130 130 175 175 175 175 175 175 175 36 36 36 36 36 36
 217 217 105 105 105 105 105 168 168 168 168 241 241 241 241 61 61 61 175 175
 175 175 175 36 36 36 36 36 36 217 217 105 105 105 105 105 168 168 168 168
 168 241 241 61 61 61 61 61 61 175 175 143 143 36 36 36 36 36 217 217
 105 105 105 105 168 168 168 168 168 168 241 241 61 61 61 61 61 61 27 143
 143 143 36 36 36 78 78 78 161 161 201 201 201 168 168 168 168 168 168 104
 104 104 61 61 61 61 27 27 27 27 143 143 36 78 78 78 201 201 201 201
 201 201 44 44 44 44 104 104 104 104 104 104 61 61 61 27 27 27 49 143
 78 78 78 78 78 201 201 201 201 201 201 44 44 44 44 104 104 104 104 104
 104 104 79 79 79 49 49 49 49 78 78 78 78 78 103 201 201 201 201 201
 44 44 44 44 104 104 104 104 104 104 104 79 79 79 79 49 49 49 213 213
 78 92 92 92 201 201 201 201 201 201 44 44 44 104 104 104 104 104 104 79
 79 79 79 79 79 49 49 213 213 213 92 92 92 92 201 201 69 69 69 69
 224 224 224 104 104 104 104 104 79 79 79 79 79 79 79 213 213 213 213 92
 92 92 92 92 69 69 69 69 69 224 224 224 104 104 104 104 104 154 79 79
 79 79 79 79 38 213 213 92 92 92 92 92 92 69 69 69 69 69 224 224
 224 224 104 104 104 154 154 154 154 79 79 79 38 38 38 213 92 92 92 92
 92 92 69 69 69 69 69 224 224 224 224 224 104 154 154 154 154 154 154 79
 38 38 38 38 38 92 92 92 92 92 92 69 69 69 69 69 224 224 224 174
 174 174 154 154 154 154 154 154 79 38 38 38 38 38 92 92 92 92 92 92
 245 245 245 245 245 245 174 174 174 174 174 66 154 154 154 154 154 62 38 38
 38 38 38 57 92 92 92 92 245 245 245 245 245 245 245 110 110 174 174 66
 66 66 66 154 154 139 139 139 38 38 38 57 57 12 92 92 92 245 245 245
 245 245 245 245 110 110 110 110 66 66 66 66 66 139 139 139 139 139 139 57
 57 57 12 172 172 172 151 151 151 151 151 151 232 110 110 110 110 66 66 66
 66 124 124 139 139 139 139 139 236 12 12 12 172 172 172 151 151 151 151 151
 151 232 7 7 7 7 7 66 66 124 124 124 236 139 139 139 236 236 12 12
 172 172 172 172 172 151 151 151 151 151 232 7 7 7 7 7 7 124 124 124
 124 124 236 236 236 236 236 236 12 172 172 172 172 172 151 151 151 151 151 232
 7 7 7 7 7 77 124 124 124 124 236 236 236 236 236 236 236 236 172 172
 172 172 172 151 151 151 151 151 232 7 7 7 7 229 77 77 124 124 124 74
 236 236 236 236 236 236 236 198 172 172 172 172 187 187 151 151 51 51 7 7
 7 7 229 77 77 77 77 74 74 74 74 162 162 162 162 162 198 198 198 187
 187 187 187 187 51 51 51 51 7 7 229 229 77 77 77 74 74 74 74 74
 162 162 162 162 162 198 198 198 187 187 187 187 187 187 51 51 51 128 128 130
 130 130 227 175 175 175 74 74 3 162 162 162 162 198 198 198 198 220 187 187
 187 21 21 51 51 51 128 128 130 130 130 130 175 175 175 175 175 175 175 3
 162 198 198 198 198 220 220 220 21 21 21 21 21 51 128 128 128 130 130 130
 130 175 175 175 175 175 175 175 175 175 198 198 198 220 220 220 220 105 21 21
 21 21 21 128 128 128 130 130 130 130 175 175 175 175 175 175 175 175 175 198
 198 220 220 220 220 220 105 105 105 105 105 168 168 128 128 130 130 130 130 175
 175 175 175 175 175 175 175 175 36 36 220 220 220 220 105 105 105 105 105 168
 168 168 168 241 241 130 130 130 175 175 175 175 175 175 175 175 36 36 36 36
 36 217 217 105 105 105 105 105 168 168 168 168 168 241 241 130 61 61 61 61
 175 175 175 175 36 36 36 36 36 36 217 217 105 105 105 105 105 168 168 168
 168 168 241 9 61 61 61 61 61 61 175 175 143 143 36 36 36 36 36 217
 217 105 105 105 105 168 168 168 168 168 168 168 9 61 61 61 61 61 61 27
 27 143 5 5 5 36 78 78 78 161 161 161 161 201 44 44 44 168 168 168
 104 104 104 61 61 61 61 27 27 27 27 27 5 5 78 78 78 78 201 201
 201 201 201 44 44 44 44 168 104 104 104 104 104 61 61 27 27 27 27 49
 49 78 78 78 78 78 78 201 201 201 201 201 44 44 44 44 104 104 104 104
 104 104 104 61 79 49 49 49 49 49 78 78 78 78 78 78 201 201 201 201
 201 44 44 44 44 104 104 104 104 104 104 104 79 79 79 49 49 49 49 213
 78 78 213 92 92 201 201 201 201 201 44 44 44 44 104 104 104 104 104 104
 79 79 79 79 79 49 49 49 213 213 213 213 92 92 201 201 201 201 69 69
 69 224 224 224 104 104 104 104 104 79 79 79 79 79 79 49 213 213 213 213
 92 92 92 92 201 69 69 69 69 69 224 224 224 224 104 104 104 104 154 79
 79 79 79 79 79 213 213 213 213 92 92 92 92 92 69 69 69 69 69 224
 224 224 224 104 104 104 154 154 154 154 79 79 79 38 38 38 213 213 92 92
 92 92 92 69 69 69 69 69 224 224 224 224 224 60 154 154 154 154 154 154
 79 38 38 38 38 38 92 92 92 92 92 92 69 69 69 69 69 224 224 224
 224 214 60 32 32 154 154 154 154 38 38 38 38 38 38 57 57 92 92 92
 93 245 28 28 28 245 224 224 224 174 174 174 32 32 32 154 154 154 38 38
 38 38 38 57 57 57 57 93 93 93 245 245 245 245 245 245 110 110 110 110
 66 66 66 32 32 32 139 139 139 38 38 57 57 57 57 57 93 93 93 151
 151 151 151 151 110 110 110 110 110 66 66 66 66 66 236 236 139 139 139 139
 57 57 57 172 172 172 172 151 151 151 151 151 151 7 7 110 110 110 7 66
 66 66 124 124 236 139 139 139 236 236 57 57 172 172 172 172 172 151 151 151
 151 151 7 7 7 7 7 7 66 66 124 124 124 236 236 236 236 236 236 236
 236 172 172 172 172 172 151 151 151 151 151 84 7 7 7 7 7 7 124 124
 124 124 236 236 236 236 236 236 236 236 172 172 172 172 172 151 151 151 151 151
 84 7 7 7 7 7 7 124 124 124 124 236 236 236 236 236 236 236 236 172
 172 172 172 172 151 151 151 151 151 84 7 7 7 7 7 7 124 124 124 124
 236 236 236 236 236 236 236 236 209 172 172 172 172 151 151 151 151 151 84 7
 7 7 7 7 77 77 77 124 74 236 236 236 236 162 162 162 162 198 209 209
 172 187 187 187 187 51 51 51 51 7 7 7 7 77 77 77 74 74 74 74
 236 162 162 162 162 162 198 198 198 187 187 187 187 187 187 51 51 128 128 128
 128 4 4 4 175 175 175 175 175 175 162 162 162 162 198 198 198 198 220 187
 21 21 21 21 21 21 128 128 128 128 130 130 130 175 175 175 175 175 175 175
 162 162 198 198 198 198 220 220 220 21 21 21 21 21 21 128 128 128 128 130
 130 130 175 175 175 175 175 65 65 65 65 198 198 198 220 220 220 220 21 21
 21 21 21 21 128 128 128 128 130 130 130 175 175 175 175 175 65 65 65 65
 65 198 220 220 220 220 220 105 105 21 21 21 128 128 128 128 128 130 130 130
 175 175 175 175 175 175 65 65 65 5 5 5 220 220 220 220 105 105 105 105
 168 168 168 128 128 128 130 130 61 61 175 175 175 175 175 175 5 5 5 5
 5 5 220 217 105 105 105 105 105 168 168 168 168 9 9 9 9 61 61 61
 61 175 175 175 175 5 5 5 5 5 5 220 217 120 105 105 105 168 168 168
 168 168 9 9 9 61 61 61 61 61 61 175 27 5 5 5 5 5 5 5
 5 161 161 161 161 105 168 168 168 168 168 168 9 9 61 61 61 61 61 61
 27 27 27 5 5 5 5 78 78 78 161 161 161 161 161 44 44 44 44 168
 9 9 9 11 61 61 61 27 27 27 27 27 27 5 78 78 78 78 78 161
 161 161 201 161 44 44 44 44 44 104 104 104 104 11 11 61 27 27 27 27
 27 78 78 78 78 78 78 78 201 201 201 201 201 44 44 44 44 44 104 104
 104 104 104 11 61 27 27 49 49 49 49 78 78 78 78 78 78 201 201 201
 201 201 44 44 44 44 44 104 104 104 104 104 104 79 79 49 49 49 49 49
 78 78 78 213 78 78 201 201 201 201 201 44 44 44 44 224 104 104 104 104
 104 104 79 79 79 49 49 49 49 213 213 213 213 92 92 201 201 201 201 201
 69 224 224 224 224 214 214 104 104 104 79 79 79 79 79 49 49 213 213 213
 213 213 92 92 201 201 201 69 69 69 224 224 224 224 214 214 60 60 60 154
 79 79 79 79 79 49 213 213 213 213 92 92 92 92 201 69 69 69 69 224
 224 224 224 214 214 60 60 60 154 154 79 79 79 79 38 38 213 213 213 92
 92 92 92 28 28 28 28 28 224 224 224 224 214 214 60 60 32 32 32 32
 154 79 38 38 38 38 38 213 57 92 93 93 93 28 28 28 28 28 224 224
 224 214 214 60 32 32 32 32 32 32 38 38 38 38 38 57 57 57 93 93
 93 93 28 28 28 28 28 28 224 224 214 214 32 32 32 32 32 32 32 236
 38 38 38 57 57 57 57 93 93 93 93 28 28 28 28 28 28 110 110 110
 110 32 32 32 32 32 32 236 236 236 38 57 57 57 57 57 93 93 93 93
 93 28 151 151 84 84 110 110 110 110 141 141 141 141 141 236 236 236 236 236
 236 57 57 57 57 172 93 93 93 151 151 151 151 84 84 84 7 110 7 141
 141 141 141 141 236 236 236 236 236 236 236 57 57 172 172 172 172 172 151 151
 151 151 84 84 84 84 7 7 7 141 141 141 124 236 236 236 236 236 236 236
 236 57 172 172 172 172 172 151 151 151 151 84 84 84 84 7 7 7 141 141
 124 124 236 236 236 236 236 236 236 236 236 172 172 172 172 172 151 151 151 151
 84 84 84 84 7 7 7 7 124 124 124 236 236 236 236 236 236 236 236 236
 172 172 172 172 144 144 151 151 151 84 84 84 84 7 7 7 7 124 124 124
 236 236 236 236 236 236 236 236 236 209 209 144 144 144 144 151 151 151 84 84
 84 84 7 7 7 4 124 124 124 236 236 236 236 236 236 236 236 209 209 209
 209 144 144 187 187 187 51 84 84 84 84 116 4 4 4 4 70 124 236 236
 236 236 236 162 162 162 145 145 145 145 145 187 187 21 21 21 21 84 128 128
 4 4 4 4 4 70 175 175 175 175 236 162 162 162 145 145 145 145 145 145
 187 21 21 21 21 21 21 128 128 128 128 4 4 4 175 175 175 175 175 65
 65 65 162 145 145 145 145 145 220 98 98 21 21 21 21 21 128 128 128 128
 4 4 4 175 175 175 175 65 65 65 65 65 145 145 145 145 220 220 220 98
 98 21 21 21 34 128 128 22 128 128 4 4 175 175 175 175 65 65 65 65
 65 145 145 145 220 220 220 220 98 98 98 21 21 34 128 128 128 128 128 130
 130 175 175 175 175 175 65 65 65 65 5 5 5 220 220 220 220 120 120 105
 43 43 34 34 128 128 9 9 9 61 61 175 24 24 175 175 65 65 5 5
 5 5 5 220 120 120 120 120 120 43 43 43 168 168 9 9 9 9 61 61
 61 61 24 24 24 65 5 5 5 5 5 5 120 120 120 120 120 120 43 43
 43 168 168 9 9 9 9 61 61 61 61 91 91 27 27 5 5 5 5 5
 5 5 161 161 161 161 120 43 43 43 168 168 9 9 9 9 61 61 61 61
 27 27 27 27 5 5 5 5 78 78 161 161 161 161 161 161 43 44 44 44
 44 9 9 9 11 11 11 61 27 27 27 27 27 27 78 78 78 78 78 78
 161 161 161 161 161 44 44 44 44 44 9 9 11 11 11 11 11 27 27 27
 27 27 78 78 78 78 78 78 78 161 161 201 201 161 44 44 44 44 44 104
 104 104 11 11 11 11 27 27 27 49 49 49 78 78 78 78 78 78 201 201
 201 201 201 44 44 44 44 214 104 104 104 104 11 11 79 79 49 49 49 49
 49 78 78 78 78 78 78 201 201 201 201 201 44 44 44 214 214 214 214 104
 104 104 104 79 79 49 49 49 49 213 213 213 213 213 78 201 201 201 201 201
 201 69 224 224 224 214 214 214 214 60 60 79 79 79 79 49 49 49 213 213
 213 213 213 213 201 201 201 201 201 28 69 224 224 224 214 214 214 60 60 60
 60 79 79 79 79 79 20 213 213 213 213 213 213 92 92 28 28 28 28 28
 224 224 224 214 214 214 60 60 60 32 32 32 79 79 20 20 20 213 213 213
 14 93 93 93 28 28 28 28 28 28 224 224 214 214 214 60 60 32 32 32
 32 32 79 20 20 20 20 213 213 14 93 93 93 93 28 28 28 28 28 224
 224 214 214 214 60 32 32 32 32 32 32 58 58 38 38 38 57 57 57 93
 93 93 93 28 28 28 28 28 28 224 214 214 214 32 32 32 32 32 32 32
 236 236 38 38 57 57 57 57 93 93 93 93 93 28 28 28 28 28 84 84
 84 167 32 32 32 32 32 32 236 236 236 236 57 57 57 57 57 93 93 93
 93 93 28 28 28 84 84 84 84 84 167 141 141 141 141 141 236 236 236 236
 236 236 57 57 57 57 93 93 93 93 93 151 151 84 84 84 84 84 84 167
 141 141 141 141 141 236 236 236 236 236 236 236 57 57 172 172 172 172 172 151
 151 151 84 84 84 84 84 84 84 141 141 141 141 141 236 236 236 236 236 236
 236 236 57 172 172 172 172 144 144 151 151 84 84 84 84 84 84 84 141 141
 141 141 236 236 236 236 236 236 236 236 236 236 144 144 144 144 144 144 151 151
 84 84 84 84 84 84 84 7 141 124 124 236 236 236 236 236 236 236 236 236
 236 209 144 144 144 144 144 151 151 84 84 84 84 84 84 84 84 141 124 124
 236 236 236 236 236 236 236 236 236 209 209 209 144 144 144 144 144 151 84 84
 84 84 84 84 84 4 4 4 124 236 236 236 236 236 236 236 236 209 209 209
 209 209 144 144 144 144 187 146 84 84 84 116 116 4 4 4 4 70 70 70
 236 236 236 236 162 162 209 209 145 145 145 145 144 187 21 21 146 146 146 205
 4 4 4 4 4 4 70 70 70 175 65 236 65 162 162 145 145 145 145 145
 145 145 21 21 21 21 146 146 128 128 128 4 4 4 4 70 70 175 175 65
 65 65 65 65 145 145 145 145 145 145 98 98 98 21 21 21 128 128 128 128
 128 4 4 4 70 175 175 175 65 65 65 65 65 145 145 145 145 145 145 98
 98 98 98 21 21 34 128 128 128 128 4 4 4 175 175 24 24 65 65 65
 65 65 145 145 145 145 145 220 98 98 98 98 21 34 34 34 128 128 128 128
 4 115 24 24 24 24 24 65 65 65 65 5 145 5 145 120 120 120 120 120
 120 43 43 34 34 34 9 9 9 9 115 24 24 24 24 24 24 65 65 5
 5 5 5 5 120 120 120 120 120 120 43 43 43 34 34 9 9 9 9 61
 61 24 24 24 24 24 65 5 5 5 5 5 5 120 120 120 120 120 120 43
 43 43 43 9 9 9 9 9 61 61 61 91 91 91 91 91 5 5 5 5
 78 78 78 161 120 120 120 120 43 43 43 43 9 9 9 9 9 11 61 61
 91 91 27 27 27 5 5 5 5 78 78 161 161 161 161 161 161 43 43 43
 44 9 9 9 9 11 11 11 11 91 27 27 27 27 27 78 78 78 78 78
 161 161 161 161 161 161 161 44 44 44 44 9 9 11 11 11 11 11 27 27
 27 27 27 78 78 78 78 78 78 78 161 161 161 161 161 161 44 44 44 44
 9 9 11 11 11 11 11 27 27 27 27 49 78 78 78 78 78 78 78 161
 161 161 161 161 161 44 44 44 214 214 214 11 11 11 11 11 27 27 49 49
 49 49 78 78 78 78 78 78 201 201 201 201 201 201 44 44 214 214 214 214
 104 11 11 11 11 79 49 49 49 49 213 213 213 78 213 78 231 201 201 201
 201 201 201 224 224 214 214 214 214 60 60 60 60 79 79 79 49 49 49 213
 213 213 213 213 231 231 231 201 201 28 28 28 224 224 214 214 214 214 60 60
 60 60 215 215 215 20 20 20 20 213 213 213 213 231 231 231 28 28 28 28
 28 28 224 214 214 214 214 60 60 60 32 215 215 215 215 20 20 20 20 20
 213 14 93 93 28 28 28 28 28 28 28 31 214 214 214 214 60 60 32 32
 32 215 215 215 20 20 20 20 14 14 14 93 93 93 93 28 28 28 28 28
 31 31 214 214 214 60 32 32 32 32 32 215 58 58 58 20 14 14 14 14
 93 93 93 93 28 28 28 28 28 31 31 31 31 214 32 32 32 32 32 32
 58 58 58 58 15 14 14 14 57 93 93 93 93 93 28 28 28 28 31 31
 31 167 167 167 32 32 32 32 32 58 58 58 58 15 57 57 57 93 93 93
 93 93 93 28 28 28 84 84 84 84 167 167 167 141 141 141 141 236 236 58
 58 58 58 57 57 57 93 93 93 93 93 23 23 28 84 84 84 84 84 84
 167 167 141 141 141 141 236 236 236 236 236 236 236 57 57 144 144 172 23 23
 23 23 23 84 84 84 84 84 84 167 167 141 141 141 141 236 236 236 236 236
 236 236 236 236 144 144 144 144 144 23 23 23 84 84 84 84 84 84 84 167