# vtk DataFile Version 2.0
Data set from ImportExport Version 6.5.171.b0b162591
ASCII

DATASET RECTILINEAR_GRID
DIMENSIONS 30 30 30
X_COORDINATES 30 float
-1.250000 1.250000 3.750000 6.250000 8.750000 11.250000 13.750000 16.250000 18.750000 21.250000 23.750000 26.250000 28.750000 31.250000 33.750000 36.250000 38.750000 41.250000 43.750000 46.250000 48.750000 
51.250000 53.750000 56.250000 58.750000 61.250000 63.750000 66.250000 68.750000 71.250000 
Y_COORDINATES 30 float
-1.250000 1.250000 3.750000 6.250000 8.750000 11.250000 13.750000 16.250000 18.750000 21.250000 23.750000 26.250000 28.750000 31.250000 33.750000 36.250000 38.750000 41.250000 43.750000 46.250000 48.750000 
51.250000 53.750000 56.250000 58.750000 61.250000 63.750000 66.250000 68.750000 71.250000 
Z_COORDINATES 30 float
-1.250000 1.250000 3.750000 6.250000 8.750000 11.250000 13.750000 16.250000 18.750000 21.250000 23.750000 26.250000 28.750000 31.250000 33.750000 36.250000 38.750000 41.250000 43.750000 46.250000 48.750000 
51.250000 53.750000 56.250000 58.750000 61.250000 63.750000 66.250000 68.750000 71.250000 
CELL_DATA 24389
SCALARS FeatureIds int 1
LOOKUP_TABLE default
 100 100 100 100 100 100 67 126 126 238 238 238 238 238 238 238 222 222 222 222
 222 222 222 167 167 167 167 167 167 100 100 100 100 100 100 67 245 245 245 238
 238 238 245 245 245 222 222 222 222 222 222 222 167 167 167 167 167 167 100 100
 100 100 100 100 67 245 245 245 245 245 245 245 245 245 222 222 222 222 222 222
 222 167 167 167 167 167 167 100 100 100 100 100 100 67 245 245 245 245 245 245
 245 245 245 222 222 222 222 222 222 222 167 167 167 167 167 167 184 184 184 184
 75 75 177 177 177 245 245 245 245 245 245 245 222 222 222 222 222 222 32 165
 165 165 165 165 165 184 184 184 184 75 75 177 177 177 177 245 245 245 245 245
 245 245 122 122 122 122 122 32 32 165 165 165 165 165 184 184 184 75 75 75
 75 177 177 177 177 245 245 245 245 245 122 122 122 122 122 122 32 32 32 165
 165 165 165 184 184 184 75 75 75 75 83 177 177 177 245 245 245 245 139 122
 122 122 122 122 122 32 32 32 32 165 165 165 2 2 2 184 75 75 75 83
 83 177 177 245 245 245 139 139 139 122 122 122 122 122 32 32 32 32 32 32
 2 2 2 2 2 184 75 83 83 83 83 177 245 139 139 139 139 139 139 122
 122 122 122 32 32 32 156 156 156 2 2 2 2 2 2 114 83 83 84 84
 84 154 139 139 139 139 139 139 139 122 122 122 32 156 156 156 156 156 2 2
 2 2 2 2 114 114 84 84 84 84 154 139 139 139 139 139 139 139 122 122
 122 156 156 156 156 156 156 2 2 2 2 2 114 114 114 84 84 84 84 154
 154 154 139 139 139 139 139 1 1 248 248 248 248 248 248 248 2 2 2 2
 2 114 114 114 84 84 84 84 154 154 154 154 154 139 139 139 1 1 146 146
 248 248 248 248 248 2 2 2 2 114 114 114 114 84 84 84 154 154 154 154
 154 154 154 154 154 146 146 146 146 146 248 248 248 248 248 2 2 2 114 114
 114 114 84 84 84 154 154 154 154 154 154 154 154 154 146 146 146 146 146 146
 248 248 248 232 2 2 48 48 48 48 48 48 225 225 225 225 154 154 154 154
 154 154 23 146 146 146 146 146 112 112 112 112 232 36 48 48 48 48 48 48
 48 225 225 225 225 225 154 154 154 154 23 23 66 66 66 66 66 112 112 112
 232 232 48 48 48 48 48 48 48 48 193 193 225 225 225 225 154 154 23 23
 23 23 66 66 66 66 66 112 112 232 232 48 48 48 48 48 48 48 48 193
 193 193 225 213 213 213 213 23 23 23 23 66 66 66 66 66 66 112 232 232
 48 48 48 48 48 48 48 48 193 193 193 225 213 213 213 23 23 23 23 23
 66 66 66 66 66 66 196 196 196 76 76 76 76 48 48 48 48 193 193 193
 225 213 213 181 23 23 23 23 23 23 182 182 182 182 182 196 196 196 99 76
 76 76 76 76 48 126 126 126 126 126 94 181 181 39 39 39 39 50 50 161
 161 161 161 161 196 196 196 99 76 76 76 76 76 126 126 126 126 126 126 94
 181 181 181 39 39 50 39 39 161 161 161 161 161 196 196 196 99 99 76 76
 76 76 126 126 126 126 126 126 94 181 181 181 39 50 39 39 39 161 161 161
 161 161 161 99 99 99 99 99 76 76 126 126 126 126 126 126 126 94 94 181
 181 50 39 39 39 144 161 161 161 161 161 161 99 99 99 99 99 99 99 126
 126 126 126 126 126 126 94 94 181 181 50 39 144 144 144 144 161 161 161 161
 167 99 99 99 99 99 99 126 126 126 126 126 126 126 126 94 94 94 181 50
 144 144 144 144 144 161 167 167 167 167 167 99 99 99 99 99 126 126 126 126
 126 126 126 238 238 94 94 181 222 222 222 222 222 222 222 167 167 167 167 167
 167 207 100 100 100 100 67 67 67 126 238 238 238 238 238 238 238 222 222 222
 222 222 222 167 167 167 167 167 167 167 100 100 100 100 100 67 67 67 67 245
 238 238 238 245 245 245 222 222 222 222 222 222 222 167 167 167 167 167 167 207
 100 100 100 100 67 67 67 245 245 245 245 245 245 245 245 166 222 222 222 222
 222 167 167 167 167 167 167 167 184 184 100 100 137 67 67 245 245 245 245 206
 245 245 245 245 245 222 222 222 222 222 222 167 167 167 167 167 167 184 184 184
 184 184 177 177 177 177 177 245 245 245 245 245 245 166 166 122 222 122 122 32
 32 165 165 165 165 165 184 184 184 184 184 83 83 177 177 177 177 245 245 245
 245 245 166 122 122 122 122 122 32 32 32 32 165 165 165 184 184 184 184 184
 83 83 83 177 177 177 245 245 245 245 245 122 122 122 122 122 122 32 32 32
 32 165 165 165 184 184 184 184 184 83 83 83 83 177 177 245 245 245 245 122
 122 122 122 122 122 122 32 14 32 32 32 32 32 184 184 184 184 184 83 83
 83 83 83 177 245 245 245 139 139 122 122 122 122 122 122 32 32 32 32 32
 32 2 2 2 2 184 184 83 83 83 83 83 177 245 139 139 139 139 139 122
 122 122 122 122 32 32 32 156 156 156 2 2 2 2 2 184 114 83 83 84
 84 84 84 139 139 139 139 139 139 122 122 122 122 32 156 156 156 156 156 2
 2 2 2 2 114 114 114 84 84 84 84 84 139 139 139 139 139 139 139 122
 122 122 156 156 156 156 156 156 2 2 2 2 2 114 114 114 84 84 84 84
 84 154 139 139 139 139 139 139 1 1 1 248 248 248 248 248 248 2 2 2
 2 2 114 114 114 84 84 84 84 154 154 154 154 139 139 139 139 1 1 146
 146 248 248 248 248 248 2 2 2 2 114 114 114 114 84 84 84 84 154 154
 154 154 154 154 139 139 1 146 146 146 146 248 248 248 248 2 2 2 2 114
 114 114 114 84 84 84 154 154 154 154 154 154 154 154 154 146 146 146 146 146
 146 112 248 248 248 36 36 36 114 114 114 114 84 84 225 225 154 154 154 154
 154 154 154 23 146 146 146 146 146 112 112 112 112 232 36 36 36 48 48 48
 48 48 225 225 225 225 154 154 154 154 154 23 23 23 66 66 66 112 112 112
 112 112 232 36 36 48 48 48 48 48 48 193 193 225 225 225 225 154 18 23
 23 23 23 66 66 66 66 112 112 112 112 232 130 48 48 48 48 48 6 6
 193 193 193 225 213 213 213 23 23 23 23 23 66 66 66 66 66 66 112 112
 232 130 130 48 48 48 6 6 6 6 193 193 225 213 213 23 23 23 23 23
 23 227 66 66 66 66 66 66 196 196 99 76 76 76 48 6 6 6 6 193
 193 186 213 213 23 23 23 23 23 23 227 182 182 182 182 182 196 196 196 99
 99 76 76 76 6 6 6 6 126 126 126 94 181 181 181 39 39 50 227 227
 161 161 161 161 161 196 196 196 99 99 99 99 76 76 6 126 126 126 126 126
 94 181 181 181 39 39 39 39 227 161 161 161 161 161 161 99 99 99 99 99
 99 99 76 126 126 126 126 126 126 181 181 181 181 50 39 39 39 39 161 161
 161 161 161 161 99 99 99 99 99 99 99 126 126 126 126 126 126 126 181 181
 181 181 39 39 39 39 161 161 161 161 161 161 161 99 99 99 99 99 99 99
 126 126 126 126 126 126 126 162 181 181 181 39 39 144 144 144 161 161 161 161
 161 161 99 99 99 99 99 99 99 126 126 126 126 126 126 162 162 162 94 181
 39 144 144 144 144 144 167 167 167 167 167 99 99 99 99 99 99 99 126 126
 126 126 126 126 238 162 162 94 181 222 222 222 222 222 222 167 167 167 167 167
 167 99 207 207 100 100 67 67 67 67 67 238 238 238 238 245 245 245 166 222
 222 222 222 96 167 167 167 167 167 167 167 207 100 100 100 67 67 67 67 67
 245 238 238 238 245 245 245 166 166 166 222 222 222 167 167 167 167 167 167 167
 207 207 10 137 67 67 67 67 67 245 245 245 245 245 245 166 166 166 166 166
 222 96 167 167 167 167 167 167 167 184 184 137 137 137 67 67 67 245 245 245
 245 245 245 245 245 166 166 166 166 166 96 167 167 167 167 167 167 167 184 184
 184 184 184 137 67 177 177 177 245 245 245 245 245 166 166 166 166 166 122 122
 32 32 167 167 167 167 167 184 184 184 184 184 83 83 83 177 177 177 245 245
 245 245 245 166 122 122 122 122 122 32 32 32 32 32 165 165 184 184 184 184
 184 83 83 83 83 177 177 245 245 245 245 245 122 122 122 122 122 122 32 32
 32 32 32 32 32 184 184 184 184 184 83 83 83 83 148 148 148 245 245 245
 122 122 122 122 122 122 122 32 32 32 32 32 32 32 184 184 184 184 184 83
 83 83 83 148 148 148 245 245 139 139 122 122 122 122 122 122 32 32 32 32
 32 32 2 2 2 184 184 184 83 83 83 83 148 148 148 139 139 139 139 139
 122 122 122 122 122 32 32 32 156 156 156 2 2 2 2 2 184 83 83 84
 84 84 84 84 139 139 139 139 139 139 122 122 122 122 32 156 156 156 156 156
 2 2 2 2 2 2 114 84 84 84 84 84 84 84 139 139 139 139 139 139
 1 1 1 1 156 156 156 156 156 2 2 2 2 2 114 114 114 84 84 84
 84 84 154 139 139 139 139 139 1 1 1 1 1 248 248 248 248 248 2 2
 2 2 2 114 114 114 84 84 84 84 84 154 154 154 139 139 139 1 1 1
 1 1 248 248 248 248 248 2 2 2 2 114 114 114 114 84 84 84 84 84
 154 154 154 154 154 139 1 1 1 1 146 146 248 248 248 248 248 36 36 2
 114 114 114 114 84 84 84 84 154 154 154 154 154 154 154 1 1 1 146 146
 146 146 112 248 248 248 36 36 36 34 34 34 34 84 84 84 84 154 154 154
 154 154 154 18 18 1 41 41 41 41 112 112 112 112 112 36 36 36 34 34
 34 34 84 84 84 225 225 154 154 154 18 18 18 18 18 41 41 41 41 112
 112 112 112 112 36 36 36 34 34 34 34 6 6 186 186 225 225 154 18 18
 18 18 18 18 66 66 66 66 112 112 112 112 112 130 130 130 34 34 34 6
 6 6 186 186 186 186 18 18 18 18 18 23 227 227 66 66 66 66 66 112
 112 112 130 130 130 34 34 34 6 6 6 6 186 186 186 18 18 18 23 23
 23 227 227 66 66 66 66 66 66 196 196 130 99 130 34 34 6 6 6 6
 6 186 186 186 18 18 23 23 23 23 227 227 182 182 182 182 182 182 196 196
 99 99 99 99 6 6 6 6 6 6 126 186 181 181 181 181 39 50 227 227
 227 161 161 161 161 161 161 99 99 99 99 99 99 99 6 6 6 126 126 126
 126 181 181 181 181 50 39 39 227 227 161 161 161 161 161 161 99 99 99 99
 99 99 99 99 126 126 126 126 126 126 126 181 181 181 39 39 39 39 227 161
 161 161 161 161 161 99 99 99 99 99 99 99 99 126 126 126 126 126 162 162
 181 181 181 39 39 39 39 161 161 161 161 161 161 99 99 99 99 99 99 99
 99 99 126 126 126 126 162 162 162 162 181 181 39 39 39 39 144 161 161 161
 161 161 99 99 99 99 99 99 99 99 99 126 126 126 126 162 162 162 162 181
 181 39 39 144 144 144 144 161 167 167 167 167 99 99 99 99 99 99 99 126
 126 126 126 126 162 162 162 162 162 162 222 222 222 222 222 222 167 167 167 167
 167 167 99 207 207 207 67 67 67 67 67 67 67 162 162 162 162 162 166 166
 166 166 96 96 96 96 167 167 167 207 207 207 207 207 10 137 137 67 67 67
 67 67 245 245 245 245 245 166 166 166 166 166 96 96 96 167 167 167 207 207
 207 207 207 10 137 137 137 67 67 67 245 245 245 245 245 245 166 166 166 166
 166 96 96 96 167 167 167 167 207 207 207 137 137 137 137 137 137 67 245 245
 245 245 245 245 245 166 166 166 166 166 166 96 96 167 167 167 167 207 207 184
 184 184 184 137 137 137 137 245 245 245 245 245 245 245 166 166 166 166 166 166
 96 149 149 149 149 167 207 207 184 184 184 184 184 184 83 83 83 177 245 245
 245 245 245 166 166 166 166 122 122 122 149 149 149 149 149 149 149 184 184 184
 184 184 184 83 83 83 148 148 245 245 245 245 166 166 122 122 122 122 122 149
 149 149 149 149 149 149 184 184 184 184 184 83 83 83 83 148 148 148 245 245
 245 122 122 122 122 122 122 122 149 149 149 149 149 149 149 184 184 184 184 184
 83 83 83 83 148 148 148 245 245 139 122 122 122 122 122 122 122 149 149 149
 149 149 149 108 108 108 184 184 184 184 83 83 83 148 148 148 245 139 139 139
 139 122 122 122 122 122 122 149 149 149 149 108 108 108 108 108 108 184 184 83
 84 84 84 84 84 84 139 139 139 139 139 122 122 122 1 1 149 156 156 156
 108 108 108 108 108 108 108 114 84 84 84 84 84 84 84 139 139 139 139 139
 1 1 1 1 1 1 156 156 156 156 108 108 108 108 108 114 114 84 84 84
 84 84 84 84 139 139 139 139 139 1 1 1 1 1 1 248 248 248 248 108
 108 108 108 108 114 114 84 84 84 84 84 84 84 154 139 139 139 1 1 1
 1 1 1 1 248 248 248 248 108 108 108 108 108 114 114 84 84 84 84 84
 84 79 79 154 154 139 1 1 1 1 1 1 1 248 248 248 248 248 36 36
 36 36 114 114 84 84 84 84 84 79 79 79 154 154 18 1 1 1 1 1
 1 41 41 112 248 248 36 36 36 36 36 34 34 34 84 84 84 84 79 79
 79 154 18 18 18 1 1 1 41 41 41 41 112 112 112 36 36 36 36 36
 34 34 34 34 84 84 186 186 186 154 18 18 18 18 18 18 41 41 41 41
 41 112 112 112 36 36 36 36 34 34 34 34 6 6 186 186 186 186 186 18
 18 18 18 18 18 66 66 41 41 41 112 112 112 36 130 130 130 34 34 34
 6 6 6 186 186 186 186 186 18 18 18 18 18 227 227 66 66 66 66 66
 112 112 36 130 130 130 34 34 34 6 6 6 6 186 186 186 186 18 18 18
 18 227 227 227 227 66 66 66 66 66 130 130 130 130 130 130 34 6 6 6
 6 6 186 186 186 18 18 18 18 18 227 227 227 227 182 182 182 182 182 130
 130 130 130 130 130 183 183 6 6 6 6 186 186 77 181 18 18 18 23 227
 227 227 227 161 161 161 161 161 99 99 99 99 99 99 183 183 183 183 6 126
 126 126 181 181 181 181 50 39 227 227 227 161 161 161 161 161 161 99 99 99
 99 99 99 99 183 183 126 126 126 126 70 70 70 181 181 39 39 39 39 227
 161 161 161 161 161 161 99 99 99 99 99 99 99 183 197 126 126 126 162 162
 162 70 70 181 39 39 39 150 150 161 161 161 161 161 99 99 99 99 99 99
 99 99 197 197 197 126 162 162 162 162 162 70 70 39 39 39 150 150 161 161
 161 161 143 99 99 99 99 99 99 99 99 197 197 197 197 162 162 162 162 162
 162 70 39 39 150 150 150 96 96 143 143 143 143 99 99 99 99 99 99 99
 197 197 67 67 162 162 162 162 162 162 162 62 62 62 96 96 96 96 167 167
 167 207 207 207 207 207 207 10 137 67 67 67 67 67 162 162 162 131 131 166
 166 166 166 96 96 96 96 96 167 207 207 207 207 207 207 10 10 137 137 67
 67 67 67 245 245 245 131 166 166 166 166 166 96 96 96 96 96 167 207 207
 207 207 207 207 10 10 137 137 137 67 67 245 245 245 245 245 166 166 166 166
 166 166 96 96 96 96 167 207 207 207 207 207 10 10 10 137 137 137 137 245
 245 245 245 245 245 166 166 166 166 166 166 166 96 96 96 89 207 207 207 207
 207 10 10 10 137 137 137 137 245 179 179 179 245 245 166 166 166 166 166 166
 166 149 149 149 149 149 207 207 207 184 184 184 184 184 137 83 83 83 179 179
 179 179 245 166 166 166 166 166 166 122 149 149 149 149 149 149 149 207 184 184
 184 184 184 83 83 83 83 148 179 179 179 179 166 166 166 166 122 122 122 149
 149 149 149 149 149 149 149 184 184 184 184 184 83 83 83 83 148 148 179 179
 179 179 166 166 122 122 122 122 149 149 149 149 149 149 149 149 108 184 184 184
 184 83 83 83 83 148 148 179 179 179 200 200 122 122 122 122 122 149 149 149
 149 149 149 149 108 108 108 108 184 184 184 83 83 83 148 148 179 179 200 200
 200 200 122 122 122 122 122 149 149 149 149 149 108 108 108 108 108 108 176 176
 83 84 84 84 84 84 84 200 200 200 200 200 1 1 1 1 1 1 149 156
 156 108 108 108 108 108 108 176 176 84 84 84 84 84 84 84 200 200 200 200
 200 1 1 1 1 1 1 1 156 156 108 108 108 108 108 108 108 84 84 84
 84 84 84 84 84 200 200 200 200 200 1 1 1 1 1 1 1 248 248 108
 108 108 108 108 108 108 84 84 84 84 84 84 84 79 79 200 200 200 1 1
 1 1 1 1 1 1 248 248 248 108 108 108 108 108 108 84 84 84 84 84
 84 79 79 79 79 214 214 1 1 1 1 1 1 1 1 248 248 248 108 36
 36 36 36 114 84 84 84 84 84 79 79 79 79 79 214 214 1 1 1 1
 1 1 1 1 1 248 36 36 36 36 36 36 34 34 34 84 84 84 79 79
 79 79 79 18 18 18 1 1 1 1 41 41 41 41 112 36 36 36 36 36
 36 34 34 34 6 84 186 186 186 186 186 18 18 18 18 18 73 73 41 41
 41 41 41 112 36 36 36 36 36 36 34 34 6 6 6 186 186 186 186 186
 18 18 18 18 18 73 73 73 41 41 41 41 112 36 36 130 130 130 34 34
 34 6 6 6 186 186 186 186 186 18 18 18 18 18 227 227 73 66 66 66
 66 112 36 36 130 130 130 130 34 34 6 6 6 186 186 186 186 186 18 18
 18 18 18 227 227 227 66 66 66 66 66 130 130 130 130 130 130 183 183 6
 6 6 6 186 186 186 186 18 18 18 18 227 227 227 227 182 182 182 182 130
 130 130 130 130 130 130 183 183 183 6 6 6 186 186 77 77 77 18 18 227
 227 227 227 227 161 161 161 161 130 130 130 99 99 130 130 183 183 183 183 6
 6 186 77 77 77 77 77 50 227 227 227 227 227 161 161 161 161 161 99 99
 99 99 99 99 183 183 183 183 126 126 70 70 70 70 70 70 39 39 150 150
 150 161 161 161 161 161 99 99 99 99 99 99 99 99 183 197 197 197 162 162
 162 70 70 70 70 70 150 150 150 150 150 163 163 163 143 99 99 99 99 99
 99 99 99 197 197 197 197 162 162 162 162 70 70 70 70 150 150 150 150 150
 163 163 143 143 143 99 99 99 99 99 99 99 197 197 197 197 162 162 162 162
 162 70 70 70 150 150 150 150 96 96 143 143 143 143 99 99 99 99 99 99
 197 197 197 197 197 162 162 162 162 162 162 70 62 62 62 96 96 96 96 143
 143 143 207 207 207 207 207 10 10 137 107 107 67 107 107 162 162 131 131 131
 131 62 62 62 96 96 96 96 96 143 143 207 207 207 207 207 10 10 137 137
 137 67 67 67 245 131 131 131 131 166 166 166 166 96 96 96 96 96 89 207
 207 207 207 207 10 10 10 137 137 137 137 67 245 245 131 131 131 166 166 166
 166 166 166 96 96 96 96 89 207 207 207 207 207 10 10 10 137 137 137 137
 137 179 179 179 133 133 166 166 166 166 166 166 96 96 96 89 89 89 207 207
 207 207 10 10 10 137 137 137 137 179 179 179 179 179 133 166 166 166 166 166
 166 166 149 149 149 89 89 89 89 207 184 184 10 10 137 137 137 83 179 179
 179 179 179 179 166 166 166 166 166 166 149 149 149 149 149 149 149 149 207 184
 184 184 184 184 83 83 83 83 179 179 179 179 179 166 166 166 166 166 166 149
 149 149 149 149 149 149 149 149 184 184 184 184 184 83 83 83 83 179 179 179
 179 179 179 166 166 166 122 122 149 149 149 149 149 149 149 149 149 108 108 184
 176 176 176 83 83 83 83 179 179 179 179 200 200 200 200 122 122 149 149 149
 149 149 149 149 149 108 108 108 108 176 176 176 83 83 83 83 179 179 216 200
 200 200 200 200 122 122 149 149 149 149 149 149 149 108 108 108 108 108 176 176
 176 176 84 84 84 84 84 200 200 200 200 200 200 1 1 1 1 1 149 149
 149 149 108 108 108 108 108 108 176 176 176 84 84 84 84 84 84 200 200 200
 200 200 1 1 1 1 1 1 1 1 108 108 108 108 108 108 108 108 176 84
 84 84 84 84 84 84 200 200 200 200 200 1 1 1 1 1 1 1 1 108
 108 108 108 108 108 108 108 84 84 84 84 84 84 79 79 200 200 200 200 200
 1 1 1 1 1 1 1 1 248 108 108 142 142 108 108 108 84 84 84 84
 84 79 79 79 79 214 214 214 214 1 1 1 1 1 1 1 1 170 142 142
 142 142 142 142 142 84 84 84 84 79 79 79 79 79 214 214 214 214 1 1
 1 1 1 1 1 1 170 142 142 36 36 36 36 36 34 34 84 84 79 79
 79 79 79 214 214 214 214 1 1 1 1 1 1 1 1 170 36 36 36 36
 36 36 36 34 34 6 186 186 186 186 186 186 18 18 18 18 73 73 73 73
 73 41 41 41 112 36 36 36 36 36 36 34 34 6 6 6 186 186 186 186
 186 18 18 18 18 18 73 73 73 73 73 73 73 112 36 36 130 130 130 43
 34 34 6 6 6 186 186 186 186 186 18 18 18 18 18 73 73 73 73 73
 73 73 73 43 43 130 130 130 130 34 34 6 6 6 186 186 186 186 186 19
 18 18 18 18 227 73 73 73 73 73 73 130 130 130 130 130 130 130 183 183
 183 6 6 6 186 186 186 77 19 19 19 18 227 227 227 73 73 73 73 73
 130 130 130 130 130 130 130 183 183 183 183 6 6 186 186 77 77 77 19 19
 19 227 227 227 227 73 73 163 163 130 130 130 223 130 130 130 183 183 183 183
 183 183 77 77 77 77 77 19 19 150 150 150 150 150 163 163 163 163 244 244
 223 99 99 99 99 183 183 183 183 183 107 70 70 70 77 70 70 19 150 150
 150 150 150 163 163 163 163 244 244 99 99 99 99 99 183 183 107 197 107 107
 162 70 70 70 70 70 150 150 150 150 150 150 163 163 163 143 244 244 244 99
 99 99 99 183 197 197 197 197 197 162 162 70 70 70 70 70 150 150 150 150
 150 163 163 143 143 143 244 244 99 99 99 99 197 197 197 197 197 197 162 162
 162 70 70 70 70 150 150 150 150 150 163 143 143 143 143 143 244 99 99 99
 99 197 197 197 197 197 197 162 162 162 131 131 131 62 62 62 150 96 96 96
 143 143 143 143 207 207 207 207 207 10 107 107 107 107 107 107 107 131 131 131
 131 131 62 62 62 57 96 96 96 96 143 143 207 207 207 207 207 10 10 137
 137 137 107 107 107 131 131 131 131 131 131 62 62 62 57 96 96 96 96 89
 89 207 207 207 207 207 10 10 137 137 137 137 107 179 131 131 131 131 133 166
 166 166 166 57 96 96 96 89 89 89 89 207 207 207 10 10 10 137 137 137
 137 179 179 179 179 133 133 133 166 166 166 166 166 166 96 96 89 89 89 89
 207 207 207 10 10 10 137 137 137 137 179 179 179 179 179 133 133 166 166 166
 166 166 166 96 149 89 89 89 89 89 207 141 141 10 10 137 137 137 137 179
 179 179 179 179 179 133 166 166 166 166 166 149 149 149 149 149 89 89 89 207
 184 184 184 184 184 83 83 83 179 179 179 179 179 179 133 166 166 166 166 166
 149 149 149 149 149 149 149 149 149 176 176 176 176 176 176 176 83 83 179 179
 179 216 216 216 200 166 166 166 122 149 149 149 149 149 149 149 149 149 108 176
 176 176 176 176 176 83 83 216 216 216 216 216 200 200 200 200 122 122 149 149
 149 149 149 149 149 149 108 108 108 176 176 176 176 176 176 83 216 216 216 216
 200 200 200 200 200 200 149 149 149 149 149 149 149 149 149 108 108 108 176 176
 176 176 176 176 84 84 216 216 216 200 200 200 200 200 1 1 1 1 1 149
 149 149 149 108 108 108 108 108 176 176 176 176 84 84 84 84 84 200 200 200
 200 200 200 1 1 1 1 1 1 1 1 93 108 108 108 108 108 108 176 176
 176 84 84 84 84 84 200 200 200 200 200 200 1 1 1 1 1 1 1 1
 93 108 108 108 108 108 108 176 176 84 84 84 84 84 79 79 200 200 200 200
 200 1 1 1 1 1 1 1 1 170 170 108 142 142 142 142 142 84 84 84
 84 84 79 79 79 79 214 214 214 214 1 1 1 1 1 1 1 1 170 170
 142 142 142 142 142 142 142 84 84 84 79 79 79 79 79 214 214 214 214 1
 1 1 1 1 1 1 170 170 142 142 142 142 142 142 142 142 233 79 79 79
 79 79 79 79 214 214 214 214 73 73 73 1 1 1 1 170 170 142 142 36
 36 36 36 36 233 233 233 186 186 186 186 186 186 214 214 214 73 73 73 73
 73 73 73 73 73 142 142 142 36 36 36 36 36 233 233 233 186 186 186 186
 186 186 19 19 19 18 73 73 73 73 73 73 73 73 142 142 142 43 43 43
 43 43 233 233 233 233 186 186 186 186 186 19 19 19 18 73 73 73 73 73
 73 73 73 43 43 43 43 43 43 43 43 43 6 233 6 186 186 186 186 19
 19 19 19 19 73 73 73 73 73 73 73 73 43 43 43 43 130 130 130 43
 183 183 6 6 186 186 186 186 19 19 19 19 19 73 73 73 73 73 73 73
 73 43 43 43 43 130 130 130 183 183 183 183 219 219 186 77 77 77 19 19
 19 19 150 150 150 73 73 73 73 73 43 43 43 223 223 223 130 183 183 183
 183 183 219 77 77 77 77 19 19 19 150 150 150 150 150 163 163 163 163 244
 244 223 223 223 223 223 183 183 183 107 107 107 70 70 70 70 70 70 150 150
 150 150 150 150 163 163 163 163 244 244 244 224 224 224 224 183 183 107 107 107
 107 107 70 70 70 70 70 150 150 150 150 150 150 163 163 163 143 244 244 244
 224 224 224 224 224 107 107 107 107 107 162 70 70 70 70 70 150 150 150 150
 150 150 163 163 143 143 143 244 244 224 224 224 224 107 107 107 107 107 107 162
 70 70 70 131 131 150 150 150 150 150 150 163 143 143 143 143 143 244 224 224
 224 224 107 107 107 107 107 107 162 162 131 131 131 131 62 62 62 150 96 96
 96 143 143 143 143 143 207 207 207 207 107 107 107 107 107 107 107 107 131 131
 131 131 131 62 62 62 57 57 96 96 143 143 143 143 143 207 207 207 10 10
 137 107 107 107 107 107 131 131 131 131 131 62 62 62 62 57 57 96 96 96
 89 89 89 207 207 207 207 10 10 137 137 137 137 107 179 131 131 131 131 133
 62 62 62 62 57 57 96 96 89 89 89 89 89 207 207 141 141 141 137 137
 137 137 137 179 179 133 133 133 133 133 166 166 166 166 57 96 96 89 89 89
 89 89 207 141 141 141 141 141 137 137 137 179 179 179 179 133 133 133 166 166
 166 166 166 166 149 89 89 89 89 89 89 89 141 141 141 141 141 137 137 179
 179 179 179 179 179 133 133 166 166 166 166 166 149 149 149 149 89 89 89 89
 89 141 141 141 141 141 141 176 83 179 179 179 179 216 216 133 166 166 166 166
 166 149 149 149 149 149 149 149 149 149 176 176 176 176 176 176 176 83 179 179
 216 216 216 216 216 200 200 166 166 149 149 149 149 149 149 149 149 149 149 176
 176 176 176 176 176 176 176 216 216 216 216 216 216 200 200 200 200 200 149 149
 149 149 149 149 149 149 149 218 218 176 176 176 176 176 176 176 216 216 216 216
 216 200 200 200 200 200 200 205 205 205 149 149 149 149 149 93 218 218 218 176
 176 176 176 176 176 176 216 216 216 200 200 200 200 200 200 200 205 205 205 205
 205 149 149 93 93 218 218 218 218 176 176 176 176 176 84 29 29 200 200 200
 200 200 200 200 200 205 205 205 205 205 205 93 93 93 218 218 218 218 218 176
 176 176 84 84 29 29 29 200 200 200 200 200 200 200 1 1 1 1 1 1
 93 93 93 108 142 218 218 218 218 176 29 29 29 29 29 29 29 200 200 200
 200 200 1 1 1 1 1 1 1 170 170 170 170 142 142 142 142 142 142 29
 29 29 29 29 29 29 29 214 214 214 214 1 1 1 1 1 1 1 170 170
 170 142 142 142 142 142 142 142 29 29 29 29 29 29 29 29 214 214 214 214
 145 1 1 1 1 1 1 170 170 170 142 142 142 142 142 142 233 233 29 29
 29 29 29 29 29 214 214 214 145 145 73 73 73 73 1 170 170 170 170 142
 142 142 142 142 142 233 233 233 233 29 29 29 29 29 214 214 145 145 145 73
 73 73 73 73 73 170 170 142 142 142 142 142 142 142 233 233 233 233 233 186
 186 186 186 19 19 145 145 73 73 73 73 73 73 73 73 170 142 142 43 43
 43 43 43 233 233 233 233 233 186 186 186 19 19 19 19 19 73 73 73 73
 73 73 73 73 43 43 43 43 43 43 43 43 233 233 233 233 219 186 186 186
 19 19 19 19 19 73 73 73 73 73 73 73 73 43 43 43 43 43 43 43
 43 233 233 233 219 219 219 186 19 19 19 19 19 19 19 73 73 73 73 73
 73 73 43 43 43 43 43 43 43 43 183 183 233 219 219 219 219 19 19 19
 19 19 19 150 150 73 73 73 73 73 163 43 43 43 223 223 223 223 183 183
 183 183 219 219 219 77 77 19 19 19 19 150 150 150 150 150 163 163 163 163
 244 244 223 223 224 223 223 183 183 107 107 107 107 70 70 70 70 19 19 150
 150 150 150 150 150 163 163 163 163 244 244 244 224 224 224 224 224 107 107 107
 107 107 107 70 70 70 70 70 150 150 150 150 150 150 163 163 163 143 244 244
 244 224 224 224 224 224 107 107 107 107 107 107 70 70 70 70 70 150 150 150
 150 150 150 163 163 143 143 143 244 244 224 224 224 224 134 134 134 107 134 134
 134 134 70 131 131 131 150 150 150 150 150 150 163 163 143 143 143 143 244 224
 224 224 224 134 107 107 107 107 107 134 131 131 131 131 131 62 62 62 57 57
 96 96 143 143 143 143 143 207 207 207 107 107 107 107 107 107 107 107 107 237
 131 131 131 131 62 62 62 57 57 57 96 143 143 143 143 143 207 207 141 141
 141 107 107 107 107 107 107 131 131 131 131 131 131 62 62 62 57 57 57 96
 89 89 89 89 89 207 207 141 141 141 137 137 137 107 107 107 131 131 131 131
 237 62 62 62 62 57 57 57 96 89 89 89 89 89 207 141 141 141 141 141
 141 137 137 65 179 179 133 133 133 133 133 62 62 62 57 57 111 111 89 89
 89 89 89 89 141 141 141 141 141 141 137 65 179 179 179 179 133 133 133 133
 166 166 166 166 166 111 111 89 89 89 89 89 89 141 141 141 141 141 141 141
 65 179 179 179 179 179 133 133 133 166 166 166 166 149 149 111 111 89 89 89
 89 89 141 141 141 141 141 141 141 65 179 179 179 216 216 216 133 133 166 166
 166 166 149 149 149 149 149 149 149 149 149 115 115 115 115 115 115 176 176 216
 216 216 216 216 216 216 200 200 200 166 149 149 149 149 149 149 149 149 149 93
 176 176 176 176 176 176 176 176 216 216 216 216 216 216 200 200 200 200 205 205
 205 205 149 149 149 149 149 93 93 218 176 176 176 176 176 176 176 176 216 216
 216 216 200 200 200 200 200 205 205 205 205 205 205 149 149 93 93 93 218 218
 176 176 176 176 176 176 176 216 216 216 216 200 200 200 200 200 205 205 205 205
 205 205 205 205 93 93 93 218 218 218 176 176 176 176 176 29 29 29 29 200
 200 200 200 200 200 205 205 205 205 205 205 205 93 93 93 93 218 218 218 218
 176 176 176 29 29 29 29 29 29 200 200 200 200 200 205 205 205 205 205 205
 205 205 93 93 93 170 218 218 218 218 176 29 29 29 29 29 29 29 29 200
 200 200 200 205 205 205 205 205 205 205 170 170 170 170 142 142 142 142 142 142
 29 29 29 29 29 29 29 29 214 214 214 214 145 1 1 1 1 1 170 170
 170 170 170 142 142 142 142 142 142 29 29 29 29 29 29 29 29 214 214 214
 145 145 145 1 1 1 1 170 170 170 170 170 142 142 142 142 142 233 233 233
 29 29 29 29 29 29 214 214 145 145 145 145 73 73 73 73 170 170 170 170
 142 142 142 142 142 142 233 233 233 233 29 29 29 29 29 29 145 145 145 145
 73 73 73 73 73 73 170 170 170 142 142 142 142 142 142 233 233 233 233 233
 29 29 29 29 29 145 145 145 145 73 73 73 73 73 73 170 170 142 142 43
 43 43 43 43 233 233 233 233 233 231 231 231 19 19 19 19 145 73 73 73
 73 73 73 73 73 43 43 43 43 43 43 43 43 233 233 233 233 219 219 231
 231 19 19 19 19 19 73 73 73 73 73 73 73 73 43 43 43 43 43 43
 43 43 233 233 233 219 219 219 231 231 19 19 19 19 19 19 73 73 73 73
 73 73 73 43 43 43 43 43 43 43 43 183 233 219 219 219 219 219 231 19
 19 19 19 19 150 150 73 73 73 73 73 73 43 43 43 223 223 223 223 183
 183 183 107 219 219 219 219 77 19 19 19 19 150 150 150 150 150 163 163 163
 163 244 244 223 223 223 223 223 223 107 107 107 107 219 219 13 13 13 13 19
 150 150 150 150 150 150 163 163 163 163 244 192 244 224 224 224 224 224 107 107
 107 107 107 107 13 13 13 13 13 150 150 150 150 150 150 163 163 163 143 244
 244 244 224 224 224 224 224 107 107 107 107 107 107 13 13 13 13 13 150 150
 150 150 150 150 163 163 143 143 143 244 244 224 224 224 224 134 107 107 107 107
 107 134 134 131 131 131 131 150 150 150 150 150 150 163 163 143 143 143 143 244
 224 224 224 224 107 107 107 107 107 107 107 131 131 131 131 131 62 62 62 57
 57 96 163 143 143 143 143 143 244 207 141 141 107 107 107 107 107 107 107 237
 237 237 241 241 241 16 16 16 57 57 57 96 143 143 143 143 143 207 141 141
 141 141 141 107 107 107 107 107 237 237 237 237 237 237 16 16 16 57 57 57
 96 89 89 89 89 89 89 141 141 141 141 141 141 147 107 65 65 241 241 241
 241 237 237 16 16 16 57 57 111 111 89 89 89 89 89 89 141 141 141 141
 141 141 141 65 65 65 65 65 241 133 237 237 16 16 16 57 111 111 111 111
 89 89 89 89 89 141 141 141 141 141 141 141 65 65 65 65 65 133 133 133
 133 166 166 166 166 111 111 111 111 111 89 89 89 89 141 141 141 141 141 141
 65 65 65 65 65 65 65 133 133 133 166 166 166 111 111 111 111 111 111 111
 89 89 89 141 141 141 141 141 141 141 65 65 65 65 216 216 216 216 216 229
 229 166 111 111 111 111 111 111 111 111 136 136 115 115 115 115 115 115 115 65
 65 65 216 216 216 216 216 200 200 229 205 205 205 111 111 111 111 111 111 136
 136 176 115 115 115 115 115 176 65 65 65 216 216 216 216 216 200 200 200 205
 205 205 205 205 205 149 149 149 93 93 218 176 176 176 176 176 176 176 65 216
 216 216 216 200 200 200 200 200 205 205 205 205 205 205 205 149 93 93 93 218
 218 176 176 176 176 176 176 230 29 216 216 216 200 127 127 127 200 205 205 205
 205 205 205 205 93 93 93 93 218 218 218 176 176 176 176 29 29 29 29 29
 200 200 127 127 127 127 205 205 205 205 205 205 205 93 93 93 93 218 218 218
 218 176 176 29 29 29 29 29 29 29 200 127 127 127 200 205 205 205 205 205