# vtk DataFile Version 2.0
Data set from ImportExport Version 6.5.171.b0b162591
ASCII

DATASET RECTILINEAR_GRID
DIMENSIONS 30 30 30
X_COORDINATES 30 float
-1.250000 1.250000 3.750000 6.250000 8.750000 11.250000 13.750000 16.250000 18.750000 21.250000 23.750000 26.250000 28.750000 31.250000 33.750000 36.250000 38.750000 41.250000 43.750000 46.250000 48.750000 
51.250000 53.750000 56.250000 58.750000 61.250000 63.750000 66.250000 68.750000 71.250000 
Y_COORDINATES 30 float
-1.250000 1.250000 3.750000 6.250000 8.750000 11.250000 13.750000 16.250000 18.750000 21.250000 23.750000 26.250000 28.750000 31.250000 33.750000 36.250000 38.750000 41.250000 43.750000 46.250000 48.750000 
51.250000 53.750000 56.250000 58.750000 61.250000 63.750000 66.250000 68.750000 71.250000 
Z_COORDINATES 30 float
-1.250000 1.250000 3.750000 6.250000 8.750000 11.250000 13.750000 16.250000 18.750000 21.250000 23.750000 26.250000 28.750000 31.250000 33.750000 36.250000 38.750000 41.250000 43.750000 46.250000 48.750000 
51.250000 53.750000 56.250000 58.750000 61.250000 63.750000 66.250000 68.750000 71.250000 
CELL_DATA 24389
SCALARS FeatureIds int 1
LOOKUP_TABLE default
 20 20 20 20 20 20 129 129 129 129 129 106 106 106 106 106 106 106 202 42
 42 42 42 42 83 83 83 83 14 20 20 20 20 20 20 129 129 129 129 129
 144 144 106 106 106 106 106 202 202 42 42 42 83 83 83 83 83 14 20 20
 20 20 20 20 129 129 129 79 79 144 144 106 106 106 106 202 202 202 202 42
 42 83 83 83 83 83 83 69 69 20 20 20 129 129 129 79 79 79 144 144
 144 106 106 106 202 202 202 202 202 202 83 83 83 83 83 69 69 69 69 69
 20 129 151 151 79 79 79 144 144 144 106 106 202 202 202 202 202 202 202 202
 83 83 83 69 69 69 69 69 69 69 151 151 151 151 151 79 144 144 144 144
 106 202 202 202 202 202 202 48 48 48 208 208 69 69 69 69 69 69 69 151
 151 151 151 151 151 144 144 144 144 106 202 202 202 202 202 202 48 48 48 208
 208 208 69 69 69 69 69 151 151 151 151 151 151 151 151 144 16 16 16 16
 232 202 202 202 202 48 48 234 208 208 208 208 69 69 69 156 151 151 151 151
 151 151 151 216 16 16 16 16 16 232 232 232 202 202 234 234 234 234 208 208
 208 69 156 156 156 156 151 151 151 151 151 151 216 16 16 16 16 16 232 232
 232 202 234 234 234 234 234 234 208 208 156 156 156 156 156 151 151 151 151 151
 151 16 16 16 16 16 16 232 232 232 234 234 234 234 234 234 234 234 208 156
 156 156 156 156 156 151 151 151 175 175 175 16 16 16 16 16 232 232 232 234
 234 234 234 234 234 234 234 234 186 186 156 156 156 156 151 175 175 175 175 175
 183 16 16 16 140 140 140 234 234 234 234 234 234 234 234 234 234 186 186 186
 186 156 156 203 175 175 175 175 175 183 183 152 140 140 140 140 140 234 46 46
 46 234 234 234 206 186 186 186 186 186 186 203 203 203 203 175 175 175 183 183
 111 140 140 140 140 140 46 46 46 46 46 206 206 206 186 186 186 186 186 186
 203 203 203 203 203 203 203 111 111 111 111 140 140 140 140 46 46 46 46 206
 206 206 206 206 186 186 186 186 203 203 203 203 203 203 203 203 111 111 111 111
 111 140 140 140 46 46 46 206 206 206 206 206 206 186 186 186 75 203 203 203
 203 203 203 203 217 198 198 111 111 111 111 141 141 141 46 206 206 206 206 206
 206 206 38 186 157 157 157 157 157 203 203 203 217 217 21 198 198 111 111 141
 141 141 141 58 58 206 206 206 206 206 206 38 38 157 157 157 157 157 203 203
 217 217 217 21 21 198 111 141 141 141 141 58 58 58 58 206 206 206 206 206
 38 38 38 157 157 157 157 55 55 217 235 235 235 21 21 111 141 141 141 141
 58 58 58 58 58 206 206 206 38 38 38 38 38 157 157 55 55 55 55 235
 235 235 235 235 235 141 141 34 34 58 58 58 58 58 58 5 38 38 38 38
 38 38 38 55 55 55 55 55 235 235 235 235 235 92 92 34 34 34 58 58
 58 58 58 58 5 38 38 38 38 38 38 38 55 55 55 55 55 235 235 235
 235 92 92 92 92 34 34 58 58 58 58 58 58 167 38 38 38 38 38 38
 38 55 55 207 207 55 235 235 235 92 92 92 92 92 92 92 58 58 58 58
 70 70 167 14 38 38 38 38 38 38 207 207 207 207 207 207 92 92 92 92
 92 92 92 92 92 58 70 70 70 70 70 14 14 14 14 14 38 38 207 207
 207 207 207 207 207 92 92 92 92 92 92 92 92 92 70 70 70 70 70 70
 14 14 14 14 14 20 20 20 207 207 207 207 129 129 92 92 92 92 92 92
 92 92 92 70 70 70 70 70 70 14 14 14 14 20 20 20 20 20 129 129
 129 129 129 129 92 92 92 92 92 92 92 42 42 42 70 70 70 83 14 14
 14 20 20 20 20 20 129 129 129 129 129 129 144 144 106 106 106 106 106 42
 42 42 42 42 42 83 83 83 83 14 20 20 20 20 20 129 129 129 129 129
 129 144 144 106 106 106 106 106 202 42 42 42 42 42 83 83 83 83 83 69
 20 20 20 129 129 129 129 129 129 144 144 144 106 106 106 106 202 202 202 202
 42 42 42 83 83 83 83 83 69 69 69 20 129 129 129 129 129 129 144 144
 144 144 106 106 106 202 202 202 202 202 202 42 83 83 83 83 69 69 69 69
 69 129 129 129 151 151 151 144 144 144 144 106 106 202 202 202 202 202 202 202
 202 83 83 83 69 69 69 69 69 69 69 151 151 151 151 151 216 144 144 144
 144 106 202 202 202 202 202 202 202 48 48 83 208 69 69 69 69 69 69 151
 151 151 151 151 151 216 216 144 144 144 106 202 202 202 202 202 202 202 48 48
 208 208 208 69 69 69 69 69 151 151 151 151 151 151 216 216 216 53 16 16
 16 202 202 202 202 202 202 234 234 213 213 208 208 69 69 69 151 151 151 151
 151 151 151 216 216 216 53 16 16 16 16 202 202 202 202 234 234 234 213 213
 213 208 69 148 148 148 151 151 151 151 151 151 216 216 53 53 16 16 16 16
 232 232 202 234 234 234 234 234 213 213 208 148 148 148 148 148 151 151 151 151
 151 175 118 16 16 16 16 16 16 232 232 234 234 234 234 234 234 234 234 234
 148 148 148 148 148 148 151 151 175 175 175 175 16 16 16 16 16 16 232 234
 234 234 234 234 234 234 234 234 234 186 186 148 148 148 148 175 175 175 175 175
 175 183 183 152 152 152 140 140 234 234 234 234 234 234 234 234 234 186 186 186
 186 186 186 186 175 175 175 175 175 175 183 183 152 152 152 140 140 234 234 46
 46 46 234 234 234 234 186 186 186 186 186 186 186 203 203 175 175 175 175 183
 183 152 152 152 140 140 140 46 46 46 46 46 206 206 206 186 186 186 186 186
 186 75 203 203 203 175 175 175 175 111 111 111 111 140 140 46 46 46 46 46
 206 206 206 206 186 186 186 186 186 75 75 203 203 203 203 175 175 111 111 111
 111 111 111 140 140 46 46 46 206 206 206 206 206 206 186 186 186 75 75 75
 203 203 203 203 176 198 198 198 111 111 111 111 141 141 58 46 206 206 206 206
 206 206 206 186 186 157 157 157 157 157 203 203 203 176 198 198 198 198 111 111
 111 141 141 58 58 58 206 206 206 206 206 206 38 38 157 157 157 157 157 157
 203 203 235 235 198 198 198 111 111 141 141 141 58 58 58 58 206 206 206 206
 5 38 38 38 157 157 157 157 157 55 235 235 235 235 198 198 198 111 141 141
 58 58 58 58 58 58 206 5 5 5 38 38 38 38 157 157 55 55 55 55
 235 235 235 235 235 198 111 141 34 58 58 58 58 58 58 58 5 5 5 38
 38 38 38 157 55 55 55 55 55 235 235 235 235 235 92 92 92 34 58 58
 58 58 58 58 58 5 5 5 38 38 38 38 67 55 55 55 55 55 235 235
 235 235 92 92 92 92 92 58 58 58 58 58 58 58 167 167 167 38 38 38
 38 67 207 207 207 207 55 235 235 92 92 92 92 92 92 92 92 58 58 58
 58 58 167 167 167 167 167 38 38 67 67 207 207 207 207 207 207 92 92 92
 92 92 92 92 92 92 58 70 70 70 70 167 167 167 167 167 167 38 67 67
 207 207 207 207 207 207 92 92 92 92 92 92 92 92 92 70 70 70 70 70
 70 167 167 167 14 14 20 20 20 207 207 207 129 129 129 92 92 92 92 92
 92 92 92 42 42 42 70 70 70 70 14 14 14 14 20 20 20 20 129 129
 129 129 129 129 129 92 92 92 92 92 92 92 42 42 42 42 42 70 83 83
 14 14 20 20 20 20 129 129 129 129 129 129 129 144 144 106 106 106 106 106
 42 42 42 42 42 42 42 83 83 83 83 69 20 20 20 129 129 129 129 129
 129 129 144 144 106 106 106 106 106 202 42 42 42 42 42 83 83 83 83 83
 69 69 20 20 129 129 129 129 129 129 129 144 144 106 106 106 106 202 202 202
 202 42 42 42 83 83 83 83 83 69 69 69 69 129 129 129 129 129 129 144
 144 144 144 106 106 106 202 202 202 202 202 202 42 83 83 83 83 69 69 69
 69 69 129 129 129 129 151 151 144 144 144 144 106 106 202 202 202 202 202 202
 202 202 83 83 83 69 69 69 69 69 69 69 151 151 151 151 151 216 216 144
 144 106 106 202 202 202 202 202 202 202 202 83 83 83 69 69 69 69 69 69
 151 151 151 151 151 216 216 216 216 144 106 106 202 202 202 202 202 202 202 202
 213 213 213 69 69 244 69 69 69 151 151 151 151 151 216 216 216 216 53 53
 53 16 202 202 202 202 202 202 213 213 213 213 213 69 244 244 244 244 151 151
 151 151 151 151 216 216 216 53 53 53 16 16 202 202 202 202 213 213 213 213
 213 213 213 244 148 148 148 148 151 151 151 151 118 118 118 53 53 53 53 16
 16 232 202 149 234 234 234 213 213 213 213 213 148 148 148 148 148 148 151 151
 151 118 118 118 53 53 53 53 16 16 16 149 149 234 234 234 234 213 213 213
 213 148 148 148 148 148 148 151 181 181 175 175 118 53 53 53 53 16 16 16
 234 234 234 234 234 234 234 213 213 213 148 148 148 148 148 148 148 181 181 181
 175 181 183 183 183 152 152 152 152 234 234 234 234 234 234 234 213 213 213 186
 186 186 148 148 148 181 181 181 175 175 175 183 183 183 152 152 152 152 234 234
 46 46 46 234 234 234 206 186 186 186 186 186 186 186 175 175 175 175 175 175
 183 183 183 152 152 140 140 140 46 46 46 46 46 206 206 206 186 186 186 186
 186 186 75 75 203 175 175 175 175 183 183 111 111 111 140 140 46 46 46 46
 46 206 206 206 206 206 186 186 186 186 75 75 75 203 203 176 176 175 198 111
 111 111 111 111 140 46 46 46 46 206 206 206 206 206 206 186 186 186 75 75
 75 75 203 176 176 176 198 198 198 111 111 111 111 141 141 58 46 206 206 206
 206 206 206 206 5 186 186 75 75 75 75 203 176 176 176 198 198 198 198 111
 111 111 141 58 58 58 58 206 206 206 206 206 206 5 5 157 157 157 157 157
 157 203 176 235 235 198 198 198 111 111 111 141 58 58 58 58 58 206 206 206
 5 5 5 5 157 157 157 157 157 157 55 235 235 235 235 198 198 198 111 111
 141 58 58 58 58 58 58 5 5 5 5 5 67 67 67 157 157 55 55 55
 55 235 235 235 235 235 166 166 121 58 58 58 58 58 58 58 5 5 5 5
 5 67 67 67 67 67 55 55 55 55 235 235 235 235 235 92 92 92 58 58
 58 58 58 58 58 5 5 5 5 167 67 67 67 67 67 207 55 55 55 235
 235 235 235 92 92 92 92 92 58 58 58 58 58 58 167 167 167 167 167 67
 67 67 67 67 207 207 207 55 235 235 92 92 92 92 92 92 92 92 58 58
 58 58 167 167 167 167 167 167 67 67 67 67 207 207 207 207 207 235 92 92
 92 92 92 92 92 92 105 105 105 70 70 70 167 167 167 167 167 167 67 67
 67 207 207 207 207 207 129 92 92 92 92 92 92 92 92 105 105 42 70 70
 70 167 167 167 167 167 167 67 67 129 129 129 129 129 129 129 129 92 92 92
 92 92 92 92 105 42 42 42 42 70 70 167 167 167 167 167 20 20 129 129
 129 129 129 129 129 129 92 92 92 92 92 92 92 42 42 42 42 42 42 83
 83 167 167 39 39 39 129 129 129 129 129 129 129 129 115 115 115 115 106 106
 106 242 42 42 42 42 42 42 83 83 83 83 39 39 39 129 129 129 129 129
 129 129 129 144 115 115 115 106 106 106 242 42 42 42 42 42 42 83 83 83
 83 69 69 20 129 129 129 129 129 129 129 129 144 144 106 106 106 106 202 202
 202 42 42 42 42 42 83 83 83 83 69 69 69 129 129 129 129 129 129 129
 129 144 144 144 106 106 106 202 202 202 202 202 42 42 83 83 83 83 69 69
 69 69 69 129 129 129 129 129 129 216 144 144 144 106 106 106 202 202 202 202
 202 202 202 83 83 83 69 69 69 69 244 244 109 109 151 151 151 216 216 216
 216 144 106 106 158 202 202 202 202 202 202 202 202 213 213 244 244 244 244 244
 244 109 109 151 151 151 216 216 216 216 216 53 53 158 158 202 202 202 202 202
 237 213 213 213 244 244 244 244 244 244 151 151 151 151 151 216 216 216 216 53
 53 53 158 158 158 202 202 202 237 237 213 213 213 213 244 244 244 244 244 244
 151 151 151 151 216 216 216 216 53 53 53 53 158 158 202 202 237 237 237 213
 213 213 213 244 244 244 148 148 148 151 151 151 118 118 118 118 118 53 53 53
 53 158 158 149 149 149 237 213 213 213 213 213 244 244 148 148 148 148 148 151
 151 118 118 118 118 118 53 53 53 53 53 149 149 149 149 234 234 213 213 213
 213 213 148 148 148 148 148 148 148 181 181 118 118 118 118 53 53 53 53 53
 149 149 149 149 234 234 234 213 213 213 213 148 148 148 148 148 148 148 181 181
 181 181 181 183 183 183 152 152 152 149 149 149 149 234 234 234 234 213 213 199
 186 148 148 148 148 148 178 181 181 181 181 181 183 183 183 152 152 152 152 149
 149 149 234 234 234 234 213 213 200 200 186 186 186 186 178 178 178 181 181 175
 175 183 183 183 152 152 152 152 149 149 46 46 46 46 206 206 206 200 200 186
 186 186 75 75 178 178 175 175 175 175 183 183 183 152 152 152 152 46 46 46
 46 46 206 206 206 206 200 200 200 186 186 75 75 75 178 176 176 176 176 183
 183 172 172 111 111 140 122 46 46 46 206 206 206 206 206 200 200 200 186 75
 75 75 75 75 176 176 176 176 198 198 172 172 111 111 141 64 58 58 206 206
 206 206 206 206 206 5 5 75 75 75 75 75 75 176 176 176 176 198 198 198
 111 111 111 141 58 58 58 58 206 206 206 206 206 206 5 5 75 75 75 75
 157 157 176 176 176 235 198 198 198 111 111 111 58 58 58 58 58 58 206 206
 5 5 5 5 5 67 67 157 157 157 157 176 176 174 235 198 198 198 166 166
 121 58 58 58 58 58 58 58 5 5 5 5 5 67 67 67 67 67 157 55
 55 174 174 235 235 235 166 166 166 121 121 58 58 58 58 58 58 5 5 5
 5 5 67 67 67 67 67 67 55 174 174 174 174 99 99 99 166 121 121 121
 58 58 58 58 58 239 5 5 5 5 167 67 67 67 67 67 67 55 174 174
 174 174 99 99 99 92 121 121 121 121 58 58 239 239 239 167 167 167 167 167
 67 67 67 67 67 67 207 207 174 174 99 99 99 92 92 92 121 121 105 105
 239 239 239 239 167 167 167 167 167 67 67 67 67 67 207 207 207 207 174 92
 92 92 92 92 92 92 105 105 105 105 239 239 239 167 167 167 167 167 67 67
 67 67 67 207 207 207 129 129 214 92 92 92 92 92 92 105 105 105 105 105
 42 70 167 167 167 167 167 167 67 67 67 129 129 129 129 129 129 129 214 92
 92 92 92 92 105 105 105 105 42 42 42 167 167 167 167 167 167 67 67 129
 129 129 129 129 129 129 129 115 115 92 92 92 92 105 105 105 42 42 42 42
 42 83 167 167 39 39 39 129 129 129 129 129 129 129 129 115 115 115 115 115
 115 242 242 105 42 42 42 42 42 42 83 83 39 39 39 39 129 129 129 129
 129 129 129 129 115 115 115 115 115 115 242 242 242 242 42 42 42 42 83 83
 83 83 39 39 39 129 129 129 129 129 129 129 129 115 115 115 115 115 242 242
 242 242 242 42 42 42 42 83 83 83 83 244 244 244 129 129 129 129 129 129
 129 129 115 115 115 115 115 242 242 242 242 242 242 242 42 42 78 83 83 244
 244 244 244 244 109 109 109 129 129 129 216 144 144 106 106 106 242 242 242 242
 242 242 242 78 78 78 78 244 244 244 244 244 244 109 109 109 109 216 216 216
 216 216 240 106 158 158 158 202 202 202 202 202 237 237 237 244 244 244 244 244
 244 244 109 109 109 109 216 216 216 216 216 240 53 158 158 158 158 202 202 202
 237 237 237 237 244 244 244 244 244 244 244 109 109 109 151 151 216 216 216 216
 240 53 53 158 158 158 158 202 237 237 237 237 213 213 244 244 244 244 244 244
 244 151 151 151 118 118 118 118 118 53 53 53 158 158 158 158 149 237 237 237
 237 213 213 213 244 244 244 244 148 148 148 151 151 118 118 118 118 118 53 53
 53 53 158 158 149 149 149 237 237 213 213 213 213 244 244 148 148 148 148 148
 148 118 118 118 118 118 118 53 53 53 53 53 149 149 149 149 149 237 213 213
 213 213 244 244 148 148 148 148 148 148 118 118 118 118 118 118 53 53 53 53
 53 149 149 149 149 149 149 234 213 213 213 199 199 148 148 148 148 148 148 181
 181 181 181 118 183 183 152 152 152 152 149 149 149 149 149 149 234 234 213 213
 199 199 199 148 148 148 148 178 181 181 181 181 181 183 183 152 152 152 152 149
 149 149 149 149 149 234 234 213 200 200 200 200 200 200 148 178 178 178 181 181
 181 181 183 183 183 152 152 152 149 149 149 122 122 46 46 206 206 200 200 200
 200 200 200 75 178 178 178 178 178 181 181 183 183 172 172 172 172 122 122 122
 122 122 122 206 206 206 200 200 200 200 200 200 75 75 178 178 178 176 176 176
 172 172 172 172 172 172 172 122 122 122 122 122 206 206 206 200 200 200 200 200
 75 75 75 75 178 176 176 176 176 172 172 172 172 172 172 172 64 122 122 122
 206 206 206 206 206 200 200 200 200 75 75 75 75 75 176 176 176 176 198 172
 172 172 172 172 64 64 64 58 58 206 206 206 206 206 5 5 5 67 75 75
 75 75 228 176 176 176 174 95 95 172 172 172 64 64 64 58 58 58 58 206
 206 5 5 5 5 67 67 67 67 67 157 157 40 174 174 174 174 95 166 166
 166 166 121 58 58 58 58 58 58 5 5 5 5 5 67 67 67 67 67 67
 67 174 174 174 174 174 99 166 166 166 121 121 58 58 58 239 239 239 5 5
 5 5 5 67 67 67 67 67 67 67 174 174 174 174 99 99 99 166 121 121
 121 121 58 239 239 239 239 5 5 5 5 67 67 67 67 67 67 67 67 174
 174 174 174 99 99 99 99 121 121 121 121 121 239 239 239 239 239 167 167 167
 167 67 67 67 67 67 67 67 174 174 174 99 99 99 99 99 121 121 121 105
 105 239 239 239 239 167 167 167 167 167 67 67 67 67 67 67 207 207 174 214
 99 99 99 99 92 121 121 105 105 105 105 239 239 239 167 167 167 167 167 67
 67 67 67 67 67 129 129 214 214 214 214 92 92 92 92 105 105 105 105 105
 105 239 239 167 167 167 167 167 49 49 67 67 129 129 129 129 129 214 214 214
 214 92 92 92 105 105 105 105 105 42 42 42 167 167 167 167 49 49 49 49
 129 129 129 129 129 129 129 214 115 115 115 115 92 105 105 105 105 42 42 42
 42 42 167 167 167 39 39 39 39 129 129 129 129 129 129 214 115 115 115 115
 115 115 242 242 105 105 42 42 42 42 42 83 39 39 39 39 39 39 129 129
 129 129 129 129 129 115 115 115 115 115 242 242 242 242 242 242 42 42 42 83
 83 39 39 39 39 39 129 129 129 129 129 129 129 129 115 115 115 115 115 242
 242 242 242 242 242 242 78 78 78 78 245 39 39 39 244 129 129 129 129 129
 129 129 129 115 115 115 115 115 242 242 242 242 242 242 242 78 78 78 78 78
 244 244 244 244 109 109 109 109 109 129 225 216 216 115 106 106 115 242 242 242
 242 242 242 242 78 78 78 78 244 244 244 244 244 244 109 109 109 109 109 216
 216 216 240 240 240 158 158 158 242 242 242 242 242 78 78 78 68 244 244 244
 244 244 244 109 109 109 109 216 216 216 216 240 240 240 158 158 158 158 242 242
 242 237 237 237 237 237 244 244 244 244 244 244 109 109 109 109 151 216 216 216
 240 240 240 158 158 158 158 158 242 237 237 237 237 237 213 244 244 244 244 244
 244 244 109 109 151 118 118 118 118 240 240 240 53 158 158 158 158 149 237 237
 237 237 237 213 244 244 244 244 244 244 244 148 151 118 118 118 118 118 118 240
 53 53 158 158 158 149 149 149 237 237 237 237 213 213 244 244 244 148 148 148
 148 148 118 118 118 118 118 118 53 53 53 53 158 149 149 149 149 149 237 237
 213 213 213 244 199 199 148 148 148 148 148 118 118 118 118 118 118 53 53 53
 53 158 149 149 149 149 149 149 149 213 213 213 199 199 199 199 148 148 148 178
 181 181 181 118 118 183 183 152 152 152 149 149 149 149 149 149 149 149 149 213
 199 199 199 199 199 199 148 178 178 178 181 181 181 181 183 183 152 152 152 152
 149 149 149 149 149 149 149 149 199 199 199 200 200 200 200 200 178 178 178 178
 181 181 181 183 183 152 152 152 152 122 122 122 122 122 122 122 206 200 200 200
 200 200 200 200 200 178 178 178 178 178 181 181 183 172 172 172 172 172 122 122
 122 122 122 122 122 206 206 200 200 200 200 200 200 75 178 178 178 178 178 176
 176 172 172 172 172 172 172 172 122 122 122 122 122 122 206 206 200 200 200 200
 200 200 228 228 228 178 178 176 176 176 95 172 172 172 172 172 64 64 122 122
 122 122 122 206 206 200 200 200 200 200 75 228 228 228 228 176 176 176 95 95
 95 172 172 172 172 64 64 64 64 122 122 206 206 206 5 5 5 138 67 67
 228 228 228 228 40 40 40 95 95 95 95 172 172 64 64 64 64 64 17 17
 17 17 5 5 5 5 67 67 67 67 67 228 40 40 40 174 174 95 95 166
 166 166 166 64 64 64 64 17 17 17 5 5 5 5 5 67 67 67 67 67
 191 191 40 174 174 174 174 99 166 166 166 121 121 64 64 239 239 239 239 5
 5 5 5 67 67 67 67 67 67 191 191 174 174 174 174 99 99 99 166 121
 121 121 121 239 239 239 239 239 239 5 5 5 67 67 67 67 67 67 191 191
 174 174 174 174 99 99 99 99 121 121 121 121 121 239 239 239 239 239 167 167
 167 67 67 67 67 67 67 191 191 174 174 174 99 99 99 99 99 121 121 121
 121 105 239 239 239 239 239 167 167 167 167 67 67 67 67 67 67 191 214 214
 214 214 99 99 99 99 121 121 105 105 105 105 239 239 239 167 167 167 167 49
 49 49 67 67 67 67 129 214 214 214 214 214 214 99 99 121 105 105 105 105
 105 105 239 239 167 167 167 167 49 49 49 49 67 67 129 129 129 214 214 214
 214 214 214 214 105 105 105 105 105 105 105 42 42 167 167 167 49 49 49 49
 49 129 129 129 129 129 129 214 214 214 115 115 115 105 105 105 105 105 105 42
 42 42 42 167 167 49 39 39 39 39 39 108 108 108 108 108 214 214 115 115
 115 115 242 242 242 242 242 242 242 42 42 42 245 39 39 39 39 39 39 129
 108 108 108 108 108 214 115 115 115 115 115 242 242 242 242 242 242 242 78 78
 78 245 39 39 39 39 39 39 129 129 108 108 108 108 108 115 115 115 115 115
 242 242 242 242 242 242 242 78 78 78 78 245 39 39 39 39 39 109 109 129
 108 108 108 108 115 115 115 115 115 242 242 242 242 242 242 78 78 78 78 78
 226 226 244 244 244 109 109 109 109 225 225 225 225 223 223 223 223 242 242 242
 242 242 242 242 78 78 78 78 68 226 244 244 244 244 244 109 109 109 225 225
 225 225 240 223 240 240 240 158 242 242 242 242 242 78 78 78 78 68 244 244
 244 244 244 244 109 109 109 225 225 225 240 240 240 240 240 240 158 158 158 242
 242 242 237 237 237 68 68 244 244 244 244 244 244 109 109 109 225 225 225 240
 240 240 240 240 240 158 158 158 158 242 237 237 237 237 237 68 244 244 244 244
 244 244 244 109 109 225 118 118 118 240 240 240 240 240 158 158 158 158 149 237
 237 237 237 237 213 244 244 244 244 244 244 244 109 109 118 118 118 118 118 240
 240 240 240 158 158 158 149 149 149 237 237 237 237 179 244 244 244 244 244 244
 148 148 118 118 118 118 118 118 118 240 53 53 53 158 149 149 149 149 149 237
 179 179 179 179 244 199 199 199 199 148 148 148 118 118 118 118 118 118 118 53
 53 102 149 149 149 149 149 149 149 179 179 179 199 199 199 199 199 199 148 56
 178 178 181 118 118 118 118 183 152 152 102 102 149 149 149 149 149 149 179 179
 179 199 199 199 199 199 199 199 178 178 178 178 178 181 181 183 183 152 152 152
 102 149 149 149 149 149 149 179 179 199 199 199 199 199 199 199 199 178 178 178
 178 178 181 181 183 12 12 152 102 102 102 122 122 122 122 122 122 179 199 199
 199 200 200 200 200 200 178 178 178 178 178 178 190 12 12 172 172 172 102 122
 122 122 122 122 122 122 122 200 200 200 200 200 200 200 228 228 178 178 178 178
 178 95 95 172 172 172 172 172 122 122 122 122 122 122 122 122 200 200 200 200
 200 200 200 228 228 228 228 178 178 176 95 95 95 172 172 172 172 64 64 122
 122 122 122 122 206 98 98 200 138 138 138 228 228 228 228 228 201 201 95 95
 95 95 95 172 172 64 64 64 64 64 122 17 17 17 98 5 138 138 138 138
 228 228 228 228 228 40 40 40 95 95 95 95 95 172 64 64 64 64 64 17
 17 17 17 17 5 138 138 67 67 67 67 228 228 40 40 40 40 174 95 95
 95 166 166 64 64 64 64 64 17 17 17 17 17 5 5 67 67 67 67 67
 191 191 40 40 40 174 174 174 95 166 166 166 121 64 64 64 17 17 17 17
 17 17 5 5 67 67 67 67 191 191 191 191 40 40 174 174 174 99 99 166
 121 121 121 121 64 239 239 239 17 17 17 5 5 67 67 67 67 67 191 191
 191 40 174 174 174 99 99 99 99 121 121 121 121 121 239 239 239 239 239 239
 167 167 67 67 67 67 67 191 191 191 40 174 174 99 99 99 99 99 121 121
 121 121 105 239 239 239 239 239 167 167 167 49 49 67 67 67 191 191 191 191
 214 214 214 214 99 99 99 121 121 121 105 105 105 35 239 239 35 35 167 49
 49 49 49 67 67 67 191 191 214 214 214 214 214 214 214 99 121 105 105 105
 105 105 35 35 35 35 167 167 49 49 49 49 49 67 67 108 129 214 214 214
 214 214 214 214 214 105 105 105 105 105 105 35 35 35 35 167 167 49 49 49
 49 49 49 108 108 108 129 214 214 214 214 214 115 115 105 105 105 105 105 105
 42 35 42 42 49 49 49 39 39 39 39 39 108 108 108 108 108 214 214 214
 115 115 115 242 242 242 242 242 242 242 78 78 245 245 245 245 39 39 39 39
 39 108 108 108 108 108 214 214 115 115 115 115 242 242 242 242 242 242 242 78
 78 78 245 245 245 39 39 39 39 108 108 108 108 108 108 214 115 115 115 115
 115 242 242 242 242 242 242 242 78 78 78 245 245 245 39 39 39 110 225 225
 225 108 108 225 225 223 223 223 115 242 242 242 242 242 242 242 78 78 78 78
 245 226 226 226 244 244 109 109 225 225 225 225 225 225 223 223 223 223 223 242
 242 242 242 242 242 78 78 78 78 68 226 226 226 244 244 244 109 109 225 225
 225 225 225 223 223 223 240 240 242 242 242 242 242 242 78 78 78 68 68 226
 226 244 244 244 244 109 109 225 225 225 225 240 240 240 240 240 240 158 158 242
 242 242 242 237 237 68 68 68 68 244 244 244 244 244 109 225 225 225 225 225
 240 240 240 240 240 240 158 158 158 158 242 237 237 237 237 68 68 68 244 244
 244 244 244 244 225 225 225 225 118 240 240 240 240 240 240 158 158 158 158 149
 237 237 237 237 237 68 244 244 244 244 244 244 244 57 225 225 118 118 118 240
 240 240 240 240 158 158 158 149 149 149 179 179 179 179 179 179 244 244 244 244
 199 57 57 57 134 118 118 118 118 118 240 240 240 102 158 149 149 149 149 179
 179 179 179 179 179 199 199 199 199 199 199 56 57 134 134 118 118 118 118 240
 240 102 102 102 102 149 149 149 149 179 179 179 179 179 199 199 199 199 199 56
 56 56 134 134 134 118 118 118 12 12 102 102 102 102 149 149 149 149 179 179
 179 179 199 199 199 199 199 199 56 56 56 178 178 178 190 190 12 12 12 102
 102 102 102 102 149 149 149 149 179 179 199 199 199 199 199 199 199 56 56 178
 178 178 178 190 190 12 12 12 12 102 102 102 102 122 122 122 122 122 179 199
 199 199 199 199 199 199 56 178 178 178 178 178 190 190 12 12 12 12 12 102
 102 122 122 122 122 122 122 122 199 199 199 196 196 196 196 228 228 201 201 201
 201 190 190 12 12 12 12 93 93 93 122 122 122 122 122 122 98 98 199 199
 196 196 196 196 228 228 228 201 201 201 201 95 95 95 95 172 93 93 64 64
 64 122 122 122 98 98 98 98 196 138 138 138 138 228 228 228 228 201 201 201
 95 95 95 95 95 93 64 64 64 64 64 122 98 98 98 98 98 138 138 138
 138 138 228 228 228 228 40 40 40 95 95 95 95 95 127 64 64 64 64 64
 17 17 17 17 98 98 138 138 138 138 138 228 228 228 40 40 40 40 95 95
 95 95 95 127 64 64 64 64 64 17 17 17 17 17 17 138 138 67 67 67
 191 191 191 40 40 40 40 174 95 95 95 127 127 64 64 64 64 17 17 17
 17 17 17 17 138 67 67 67 67 191 191 191 191 40 40 40 174 174 99 99
 127 121 121 121 64 64 17 17 17 17 17 17 17 125 67 67 67 67 191 191
 191 191 40 40 40 174 99 99 99 99 121 121 121 121 35 35 35 239 17 35
 35 125 125 67 67 67 67 191 191 191 191 40 40 214 214 99 99 99 99 121
 121 121 121 35 35 35 35 35 35 35 35 49 49 49 49 67 191 191 191 191
 214 214 214 214 214 214 99 52 52 121 121 105 35 35 35 35 35 35 35 35
 49 49 49 49 49 67 191 191 191 214 214 214 214 214 214 214 52 52 105 105
 105 105 35 35 35 35 35 35 35 49 49 49 49 49 67 191 108 214 214 214
 214 214 214 214 214 214 105 105 105 105 105 35 35 35 35 35 35 49 49 49
 49 49 49 49 108 108 108 108 214 214 214 214 214 214 214 214 105 105 105 105
 105 35 35 35 35 245 49 49 49 49 49 110 110 108 108 108 108 108 214 214
 214 214 115 115 242 242 242 242 242 242 242 78 245 245 245 245 245 245 39 110
 110 110 108 108 108 108 108 214 214 214 115 115 242 242 242 242 242 242 242 242
 78 78 245 245 245 245 245 39 110 110 110 108 108 108 108 108 108 214 115 115
 115 242 242 242 242 242 242 242 242 78 78 245 245 245 245 245 110 110 110 110
 225 225 225 225 225 225 223 223 223 223 242 242 242 242 242 242 242 78 78 78
 78 245 245 226 226 73 73 110 225 225 225 225 225 225 225 223 223 223 223 242
 242 242 242 242 242 242 78 78 78 68 68 226 226 226 73 73 73 225 225 225
 225 225 225 225 223 223 240 240 240 242 242 242 242 242 242 78 78 68 68 68
 226 226 73 73 73 73 225 225 225 225 225 225 225 240 240 240 240 240 220 220
 242 242 242 242 78 237 68 68 68 68 226 73 73 73 73 225 225 225 225 225
 225 240 240 240 240 240 240 220 220 220 220 242 242 237 237 68 68 68 68 73
 73 73 73 73 73 225 225 225 225 225 240 240 240 66 66 66 220 220 220 220
 149 179 179 179 179 179 179 11 73 73 73 73 73 57 57 57 134 134 134 134
 240 240 66 66 66 220 220 220 149 149 149 179 179 179 179 179 11 11 73 73
 73 57 57 57 57 134 134 134 134 134 240 66 66 66 102 102 102 149 149 149
 179 179 179 179 179 11 199 199 199 199 199 57 57 57 134 134 134 134 134 2
 66 2 102 102 102 102 102 149 149 179 179 179 179 179 179 199 199 199 199 199
 56 56 56 134 134 134 134 190 2 12 102 102 102 102 102 102 149 149 149 179
 179 179 179 199 199 199 199 199 199 56 56 56 56 134 190 190 190 12 12 12
 12 102 102 102 102 139 139 139 139 179 179 77 199 199 199 199 199 199 56 56
 56 201 201 190 190 190 12 12 12 12 102 102 102 102 139 139 139 139 139 77
 77 199 199 199 199 199 199 56 201 201 201 201 190 190 190 12 12 12 12 12
 102 102 139 139 139 139 139 139 77 1 199 199 196 196 196 196 201 201 201 201
 201 201 190 190 30 12 12 12 93 93 93 139 139 139 139 139 98 98 98 98
 199 196 196 196 196 228 228 201 201 201 201 201 30 30 95 95 93 93 93 93
 64 139 139 139 98 98 98 98 98 196 138 138 138 138 228 228 228 201 201 201
 201 95 95 95 95 95 93 93 64 64 64 64 139 98 98 98 98 98 138 138
 138 138 138 228 228 228 201 201 40 40 95 95 95 95 95 127 64 64 64 64
 64 17 17 98 98 98 98 138 138 138 138 138 228 228 228 40 40 40 40 40
 95 95 95 127 127 64 64 64 64 64 17 17 17 98 98 98 138 138 138 13
 13 191 191 191 40 40 40 40 40 95 127 127 127 127 127 64 64 64 17 17
 17 17 17 98 98 138 138 13 13 13 191 191 191 191 40 40 40 40 174 127
 127 127 127 127 121 64 35 35 17 17 17 17 17 125 125 125 13 13 13 191
 191 191 191 40 40 40 40 99 99 127 127 127 127 121 35 35 35 35 35 35
 35 125 125 125 125 13 13 13 191 191 191 191 40 40 214 214 214 99 52 52
 52 121 121 35 35 35 35 35 35 35 125 125 125 49 49 49 13 191 191 191
 191 191 214 214 214 214 214 52 52 52 52 121 105 35 35 35 35 35 35 125
 125 125 49 49 49 49 67 191 191 191 214 214 214 214 214 214 52 52 52 52
 105 105 35 35 35 35 35 35 35 125 49 49 49 49 49 49 191 108 214 214
 214 214 214 214 214 214 52 52 52 105 105 35 35 35 35 35 35 35 125 49
 49 49 49 49 49 108 108 108 108 214 214 214 214 214 214 214 52 90 105 105
 105 35 35 35 35 35 245 245 49 245 49 110 110 110 110 108 108 108 108 89
 89 214 214 90 90 90 90 242 242 242 242 242 242 245 245 245 245 245 245 39
 110 110 110 110 108 108 108 108 89 214 214 214 90 90 90 90 242 242 242 242
 242 242 245 245 245 245 245 245 245 110 110 110 110 108 108 108 225 225 214 115
 115 90 90 90 242 242 242 242 242 242 78 78 245 245 245 245 73 73 110 110
 110 225 225 225 225 225 225 223 223 223 223 242 242 242 242 242 242 242 242 78
 78 78 245 245 245 73 73 73 73 225 225 225 225 225 225 225 223 223 223 66
 242 242 242 242 242 242 242 242 100 100 68 68 226 226 73 73 73 73 225 225
 225 225 225 225 225 66 66 66 66 66 220 220 242 242 242 242 242 100 68 68
 68 68 226 73 73 73 73 225 225 225 225 225 225 225 66 66 66 66 66 220
 220 220 220 242 242 242 100 68 68 68 68 73 73 73 73 73 73 225 225 225