# vtk DataFile Version 2.0
Data set from ImportExport Version 6.5.171.b0b162591
ASCII

DATASET RECTILINEAR_GRID
DIMENSIONS 30 30 30
X_COORDINATES 30 float
-1.250000 1.250000 3.750000 6.250000 8.750000 11.250000 13.750000 16.250000 18.750000 21.250000 23.750000 26.250000 28.750000 31.250000 33.750000 36.250000 38.750000 41.250000 43.750000 46.250000 48.750000 
51.250000 53.750000 56.250000 58.750000 61.250000 63.750000 66.250000 68.750000 71.250000 
Y_COORDINATES 30 float
-1.250000 1.250000 3.750000 6.250000 8.750000 11.250000 13.750000 16.250000 18.750000 21.250000 23.750000 26.250000 28.750000 31.250000 33.750000 36.250000 38.750000 41.250000 43.750000 46.250000 48.750000 
51.250000 53.750000 56.250000 58.750000 61.250000 63.750000 66.250000 68.750000 71.250000 
Z_COORDINATES 30 float
-1.250000 1.250000 3.750000 6.250000 8.750000 11.250000 13.750000 16.250000 18.750000 21.250000 23.750000 26.250000 28.750000 31.250000 33.750000 36.250000 38.750000 41.250000 43.750000 46.250000 48.750000 
51.250000 53.750000 56.250000 58.750000 61.250000 63.750000 66.250000 68.750000 71.250000 
CELL_DATA 24389
SCALARS FeatureIds int 1
LOOKUP_TABLE default
 7 7 7 7 118 195 195 195 195 195 195 232 232 232 232 165 165 165 159 159
 159 159 159 186 186 186 186 186 186 7 7 7 7 118 195 195 195 195 195 232
 232 232 232 232 232 165 159 159 159 159 159 159 186 186 186 186 186 186 122 122
 122 122 199 199 199 195 195 195 232 232 232 232 232 113 113 113 159 159 159 159
 16 16 186 186 186 186 122 122 122 122 122 122 199 199 192 192 192 232 232 232
 232 232 113 113 113 221 221 221 16 16 16 16 186 186 122 122 122 122 122 122
 122 199 192 192 192 192 192 232 232 232 232 113 113 113 221 221 221 16 16 16
 16 138 138 122 122 122 122 122 122 122 192 192 192 192 192 192 232 232 232 232
 113 113 113 221 221 221 16 16 16 138 138 138 138 122 122 122 122 122 192 192
 192 192 194 194 192 192 232 232 232 113 113 221 221 221 221 16 16 84 84 138
 138 138 122 122 122 122 122 192 192 192 194 194 194 194 194 232 232 232 113 233
 233 221 221 221 16 16 84 84 138 138 138 122 122 122 122 122 192 192 192 194
 194 194 194 194 194 30 30 233 233 233 233 221 221 16 84 84 84 84 138 138
 223 191 191 191 191 192 192 192 194 194 194 194 194 30 30 30 30 30 30 233
 221 59 16 80 80 80 243 243 243 223 191 191 191 191 145 145 145 89 89 89
 89 43 30 30 30 30 30 30 59 59 59 59 80 80 80 243 243 243 243 191
 191 191 191 145 145 145 145 89 89 43 43 43 30 30 30 30 30 59 59 59
 59 59 80 243 243 243 243 191 191 191 191 191 145 145 145 145 145 89 43 43
 43 43 30 30 30 59 59 59 59 59 59 59 243 243 243 243 191 191 191 191
 191 145 145 145 145 145 43 43 43 43 43 30 30 59 59 59 59 59 59 59
 59 108 108 108 191 191 191 191 191 191 114 145 145 145 145 43 43 43 43 43
 30 30 59 59 59 59 59 59 59 59 108 108 108 108 191 191 191 114 114 114
 82 128 128 128 43 43 43 43 43 43 24 24 24 24 59 59 59 59 108 108
 108 86 86 191 191 114 114 114 114 82 128 128 128 128 43 43 43 43 101 101
 101 101 24 24 24 24 24 108 108 86 86 86 191 114 114 114 114 114 82 128
 128 128 128 111 111 111 242 101 101 101 101 101 101 24 24 24 108 108 86 86
 86 191 114 114 114 114 114 82 128 128 128 111 111 111 111 242 242 101 101 101
 101 101 24 24 24 108 108 86 229 229 229 114 114 114 114 114 82 128 128 111
 111 111 111 111 242 242 101 101 101 101 75 75 75 75 75 229 229 229 229 229
 229 60 114 114 114 156 156 156 156 111 111 111 111 116 116 242 101 101 75 75
 75 75 75 75 229 229 229 229 229 229 60 60 60 60 156 156 156 156 156 111
 111 116 116 116 116 75 75 75 75 75 75 75 75 58 58 229 229 229 229 60
 60 60 60 60 156 156 156 190 190 190 116 116 116 116 115 115 115 115 75 75
 75 58 58 58 58 229 229 60 60 60 60 60 60 190 190 190 190 190 190 116
 116 116 116 116 115 115 115 115 115 75 58 58 58 58 58 229 60 60 60 60
 60 60 190 190 190 190 190 190 116 116 116 116 115 115 115 115 115 115 115 67
 67 67 67 58 229 7 60 60 60 60 150 190 190 190 190 190 190 190 116 116
 165 165 165 115 115 115 115 67 67 67 67 67 67 67 7 7 7 7 60 150
 190 190 190 190 190 190 190 116 165 165 165 57 57 57 115 115 67 67 67 67
 67 67 67 7 7 7 7 7 195 195 195 190 190 190 190 190 116 165 165 57
 57 57 57 57 57 67 67 67 67 67 67 7 7 7 7 7 7 195 195 195
 195 190 190 190 190 57 57 57 57 57 57 159 159 159 159 67 67 186 186 186
 7 226 226 226 226 118 118 195 195 195 195 195 232 232 232 232 165 165 159 159
 159 159 159 159 186 186 186 186 186 186 226 226 226 226 118 118 118 195 195 195
 195 232 232 232 232 232 159 159 159 159 159 159 159 186 186 186 186 186 186 122
 122 122 118 118 118 118 118 195 192 232 232 232 232 232 113 113 113 159 159 159
 159 16 16 186 186 186 186 186 122 122 122 122 118 118 192 192 192 192 192 232
 232 232 232 113 113 113 221 221 221 16 16 16 186 186 186 186 122 122 122 122
 122 122 192 192 192 192 192 192 232 232 232 232 113 113 113 221 221 221 16 16
 16 16 138 138 122 122 122 122 122 122 192 192 192 192 192 192 192 192 232 232
 232 113 113 221 221 221 221 16 16 16 138 138 138 138 122 122 122 122 122 192
 192 192 192 192 194 192 192 232 232 232 113 113 221 221 221 221 16 16 16 138
 138 138 138 138 223 122 122 122 192 192 192 192 194 194 194 192 232 232 232 113
 233 221 221 221 221 16 16 84 84 138 138 138 223 223 223 122 122 192 192 192
 194 194 194 194 194 44 44 30 30 233 221 221 221 221 16 16 84 84 138 138
 223 223 223 191 191 191 192 192 192 194 194 194 194 43 44 44 30 30 30 30
 221 221 221 16 80 243 243 243 243 243 223 191 191 191 191 145 145 145 145 145
 145 43 43 44 44 30 30 30 30 59 59 59 59 59 243 243 243 243 243 243
 191 191 191 191 145 145 145 145 145 145 43 43 43 30 30 30 30 30 59 59
 59 59 59 243 243 243 243 243 191 191 191 191 191 145 145 145 145 145 43 43
 43 43 43 30 30 30 59 59 59 59 59 59 243 243 243 243 243 191 191 191
 191 191 145 145 145 145 145 43 43 43 43 43 30 30 59 59 59 59 59 59
 59 59 243 243 243 191 191 191 191 191 191 114 145 145 145 145 43 43 43 43
 43 30 30 59 59 59 59 59 59 59 59 172 172 172 172 191 191 191 114 114
 114 8 128 128 128 43 43 43 43 43 43 59 59 59 59 59 59 59 59 172
 172 172 172 172 191 191 114 114 114 114 114 128 128 128 128 43 43 43 43 43
 101 101 101 101 59 59 59 59 172 172 172 172 172 191 114 114 114 114 114 114
 128 128 128 128 111 43 242 242 242 101 101 101 101 101 59 59 59 172 172 172
 172 149 149 114 114 114 114 114 114 128 128 128 128 111 242 242 242 242 101 101
 101 101 101 59 75 75 172 172 229 229 229 229 114 114 114 114 114 114 128 128
 128 111 111 242 242 242 242 242 101 101 101 75 75 75 75 75 229 229 229 229
 229 229 114 114 114 114 156 156 156 156 156 111 111 242 242 242 242 101 101 75
 75 75 75 75 75 229 229 229 229 229 229 60 60 60 60 156 156 156 156 156
 156 111 242 116 242 40 115 115 115 75 75 75 75 58 58 58 229 229 229 229
 60 60 60 60 60 156 156 156 190 190 190 116 116 116 116 115 115 115 115 115
 75 75 58 58 58 58 229 229 60 60 60 60 60 60 156 190 190 190 190 190
 190 116 116 116 115 115 115 115 115 115 115 58 58 58 58 58 229 60 60 60
 60 60 60 190 190 190 190 190 190 190 116 116 116 115 115 115 115 115 115 115
 67 67 67 67 58 229 60 60 60 60 60 60 190 190 190 190 190 190 190 116
 116 57 57 57 115 115 115 115 67 67 67 67 67 67 67 226 226 226 226 60
 150 190 190 190 190 190 190 190 190 57 57 57 57 57 57 115 115 67 67 67
 67 67 67 67 226 226 226 226 226 195 195 195 195 190 190 190 190 190 57 57
 57 57 57 57 57 57 67 67 67 67 67 186 226 226 226 226 226 226 195 195
 195 195 195 190 190 190 57 57 57 57 57 57 159 159 159 67 67 186 186 186
 186 186 226 226 226 226 118 118 195 195 195 195 195 232 232 232 232 102 159 159
 159 159 159 159 159 186 186 186 186 186 186 226 226 226 118 118 118 118 195 195
 195 195 232 232 232 232 232 159 159 159 159 159 159 159 186 186 186 186 186 186
 186 226 226 118 118 118 118 118 195 192 232 232 232 232 232 232 113 159 159 159
 159 159 16 186 186 186 186 186 186 122 122 122 118 118 118 118 192 192 192 192
 232 232 232 232 113 113 113 221 221 16 16 16 16 186 186 186 186 186 122 122
 122 122 118 192 192 192 192 192 192 232 232 232 232 113 113 113 221 221 16 16
 16 16 186 138 138 122 122 122 122 122 122 192 192 192 192 192 192 192 192 232
 232 232 113 113 221 221 221 221 16 16 16 138 138 138 138 223 223 122 122 122
 192 192 192 192 192 192 192 192 232 232 232 113 113 221 221 221 221 16 16 16
 138 138 138 223 223 223 223 122 192 192 192 192 192 192 192 192 192 232 44 44
 113 221 221 221 221 221 16 16 16 138 138 138 223 223 223 223 223 192 192 192
 192 192 194 194 192 192 44 44 44 44 30 221 221 221 221 16 16 84 138 138
 223 223 223 223 223 134 134 143 143 192 192 192 194 192 44 44 44 44 44 30
 30 221 221 221 140 243 243 243 243 243 223 223 134 134 134 134 143 143 145 145
 145 145 44 44 44 44 44 30 30 30 59 59 59 59 243 243 243 243 243 243
 243 134 134 134 134 143 145 145 145 145 145 43 43 44 44 44 30 30 30 59
 59 59 59 243 243 243 243 243 243 243 191 191 191 191 143 145 145 145 145 43
 43 43 43 44 44 30 30 59 59 59 59 59 59 243 243 243 243 243 191 191
 191 191 191 8 145 145 145 145 43 43 43 43 43 44 30 59 59 59 59 59
 59 59 243 243 243 243 243 191 191 191 191 191 8 8 8 145 145 43 43 43
 43 43 44 30 59 59 59 59 59 59 59 172 172 172 172 172 191 191 191 114
 114 8 8 8 128 128 43 43 43 43 43 43 59 59 59 59 59 59 59 59
 172 172 172 172 172 191 191 114 114 114 114 8 128 128 128 128 43 242 242 242
 242 242 101 101 101 59 59 59 59 172 172 172 172 172 172 114 114 114 114 114
 114 128 128 128 128 242 242 242 242 242 242 101 101 101 101 59 59 59 172 172
 172 172 149 149 114 114 114 114 114 114 128 128 128 128 242 242 242 242 242 242
 101 101 101 101 59 59 59 172 172 149 149 149 149 114 114 114 114 114 114 128
 128 128 128 242 242 242 242 242 242 242 101 101 75 75 75 75 75 229 229 229
 229 229 229 114 114 114 114 156 156 156 156 156 242 242 242 242 242 242 242 40
 75 75 75 75 75 75 229 229 229 229 229 229 60 60 181 181 156 156 156 156
 156 156 242 242 242 242 40 40 115 115 75 75 75 75 58 58 58 229 229 229
 229 60 181 181 60 60 156 156 156 190 190 190 242 242 242 40 115 115 115 115
 115 115 115 58 58 58 58 229 229 60 60 181 60 60 60 156 190 190 190 190
 190 190 190 116 40 115 115 115 115 115 115 115 58 58 58 58 58 58 60 60
 60 60 60 60 190 190 190 190 190 190 190 190 116 102 115 115 115 115 115 115
 115 67 67 67 67 58 58 226 60 60 60 60 60 190 190 190 190 190 190 190
 190 102 102 57 115 115 115 115 115 67 67 67 67 67 67 67 226 226 226 226
 60 60 190 190 190 190 190 190 190 190 102 57 57 57 57 57 115 115 67 67
 67 67 67 67 67 226 226 226 226 226 195 195 195 195 190 190 190 190 102 57
 57 57 57 57 57 57 57 67 67 67 67 186 186 226 226 226 226 226 118 118
 195 195 195 195 190 190 190 102 57 57 57 57 57 159 159 159 159 186 186 186
 186 186 186 226 226 226 226 118 118 118 195 195 195 195 120 232 232 102 102 102
 159 159 159 159 159 132 132 186 186 186 186 186 226 226 226 118 118 118 118 118
 195 195 120 120 232 232 232 102 102 159 159 159 159 159 132 132 186 186 186 186
 186 186 226 226 118 118 118 118 118 195 120 120 120 232 232 232 232 113 159 159
 159 159 159 132 132 186 186 186 186 186 51 51 122 118 118 118 118 118 192 192
 120 120 232 232 232 232 113 221 221 221 16 16 16 16 186 186 186 186 186 51
 51 51 51 118 118 192 192 192 192 120 120 232 232 232 232 113 221 221 221 16
 16 16 16 186 186 138 186 122 51 51 51 51 192 192 192 192 192 192 192 192
 232 232 232 113 113 221 221 221 221 16 16 16 138 138 223 223 223 223 51 51
 51 192 192 192 192 192 192 192 192 232 232 232 113 221 221 221 221 221 16 16
 16 138 138 223 223 223 223 51 51 51 192 192 192 192 192 192 192 192 44 44
 44 44 221 221 221 221 221 16 16 16 138 223 223 223 223 223 223 51 51 192
 192 192 192 192 192 192 192 44 44 44 44 44 140 140 140 140 140 16 243 243
 223 223 223 223 134 134 134 143 143 143 143 192 192 192 192 44 44 44 44 44
 44 140 140 140 140 140 243 243 243 243 243 223 223 134 134 134 143 143 143 143
 143 192 192 44 44 44 44 44 44 44 140 140 140 140 140 243 243 243 243 243
 243 134 134 134 134 143 143 143 143 143 145 145 43 44 44 44 44 44 44 59
 59 59 59 59 243 243 243 243 243 243 134 134 134 134 134 143 143 143 143 145
 43 43 43 44 44 44 44 44 59 59 59 59 59 59 243 243 243 243 243 134
 134 134 134 134 8 8 8 145 145 43 43 43 43 44 44 44 44 59 59 59
 59 59 59 243 243 243 243 243 134 134 134 134 134 8 8 8 219 219 43 43
 43 43 43 44 44 59 59 59 59 59 59 59 172 172 172 172 172 134 134 134
 114 8 8 8 8 219 219 43 43 43 43 242 242 242 59 59 59 59 59 59
 59 172 172 172 172 172 134 134 114 114 114 8 8 8 219 219 219 242 242 242
 242 242 242 242 95 95 95 59 59 59 172 172 172 172 172 149 114 114 114 114
 114 219 219 219 219 219 242 242 242 242 242 242 242 101 95 95 59 59 59 172
 172 172 149 149 149 149 114 114 114 114 219 219 219 219 219 242 242 242 242 242
 242 242 101 101 101 59 37 37 149 149 149 149 149 149 106 114 114 114 114 219
 219 219 219 219 242 242 242 242 242 242 40 40 54 54 54 37 37 149 149 149
 149 149 149 106 106 181 114 181 181 156 156 156 242 242 242 242 242 242 40 40
 40 54 54 54 75 75 75 229 229 229 229 229 229 181 181 181 181 181 156 156
 156 156 242 242 242 242 40 40 40 54 54 54 54 54 54 58 58 58 229 229
 229 229 181 181 181 181 181 156 156 156 190 190 242 242 242 40 40 40 54 54
 54 54 54 54 58 58 58 58 229 229 181 181 181 181 181 181 156 190 190 190
 190 190 190 242 40 40 40 54 54 54 115 115 115 58 58 58 58 58 58 181
 181 181 181 181 181 190 190 190 190 190 190 190 190 102 102 102 115 115 115 115
 115 115 67 67 67 67 119 119 181 181 181 181 181 181 190 190 190 190 190 190
 190 190 102 102 102 102 115 115 115 115 225 67 67 67 67 119 119 226 226 226
 226 181 181 190 190 190 190 190 190 190 102 102 102 102 57 136 136 136 136 67
 67 67 67 67 119 119 226 226 226 226 226 195 195 195 190 190 190 190 190 102
 102 102 102 57 136 136 136 136 136 67 67 186 186 186 226 226 226 226 226 118
 118 195 195 195 195 190 190 190 102 102 102 102 57 136 136 136 136 132 186 186
 186 186 186 186 226 226 226 118 118 118 118 118 195 195 120 120 120 102 102 102
 102 102 136 136 136 132 132 132 132 186 186 186 186 226 226 226 118 118 118 118
 118 195 120 120 120 120 120 232 102 102 29 29 29 29 132 132 132 132 186 186
 186 186 226 226 118 118 118 118 118 118 118 120 120 120 120 120 232 232 29 29
 29 29 29 132 132 132 132 186 186 186 186 51 51 51 118 118 118 118 118 120
 120 120 120 120 120 232 232 29 29 29 29 29 29 132 132 132 186 186 186 186
 51 51 51 51 118 118 192 192 192 120 120 120 120 120 232 232 29 29 29 29
 29 29 29 16 132 186 186 51 51 51 51 51 51 51 192 192 192 192 192 120
 120 120 120 232 113 29 29 29 29 29 16 16 16 166 223 223 223 51 51 51
 51 51 51 192 192 192 192 192 192 120 120 120 44 113 221 221 221 221 221 16
 16 16 223 223 223 223 223 223 51 51 51 192 192 192 192 192 192 192 192 44
 44 44 44 140 140 140 140 140 140 16 16 223 223 223 223 223 223 51 51 143
 143 143 192 192 192 192 192 192 44 44 44 44 140 140 140 140 140 140 140 243
 243 223 223 223 223 134 134 134 143 143 143 143 36 192 192 215 44 44 44 44
 44 44 140 140 140 140 140 243 243 243 243 243 223 223 134 134 134 143 143 143
 143 143 143 215 44 44 44 44 44 44 44 140 140 140 140 140 243 243 243 243
 243 243 134 134 134 134 143 143 143 143 143 143 4 4 44 44 44 44 44 44
 140 140 140 140 140 243 243 243 243 243 243 134 134 134 134 134 143 143 143 143
 143 4 4 4 44 44 44 44 44 59 59 59 59 59 243 243 243 243 243 243
 134 134 134 134 134 143 143 143 143 219 4 4 4 4 44 44 44 44 59 59
 59 59 59 59 243 243 243 243 134 134 134 134 134 134 8 8 8 219 219 219
 4 4 4 44 44 3 3 95 95 95 95 59 59 172 172 172 172 172 134 134
 134 134 8 8 8 8 219 219 219 219 4 242 242 242 3 95 95 95 95 95
 95 59 172 172 172 172 172 134 134 134 114 90 8 8 219 219 219 219 219 242
 242 242 242 242 95 95 95 95 95 95 172 172 172 172 149 149 149 149 114 90
 90 219 219 219 219 219 219 242 242 242 242 242 242 242 95 95 95 95 37 37
 172 172 149 149 149 149 149 149 114 90 219 219 219 219 219 219 242 242 242 242
 242 242 242 95 95 95 37 37 37 149 149 149 149 149 149 106 106 106 114 219
 219 219 219 219 219 242 242 242 242 242 242 40 40 54 54 37 37 37 14 149
 149 149 149 149 106 106 106 106 181 219 219 219 219 219 242 242 242 242 242 40
 40 40 54 54 54 54 37 14 14 149 149 149 149 106 106 106 181 181 181 156
 156 156 156 242 242 242 242 40 40 40 54 54 54 54 54 54 14 14 58 229
 229 229 106 106 181 181 181 181 156 156 156 190 242 242 242 242 40 40 40 54
 54 54 54 54 54 58 58 58 58 229 229 106 181 181 181 181 181 181 190 190
 190 190 190 242 242 40 40 40 54 54 54 54 54 54 225 58 58 58 58 119
 119 181 181 181 181 181 181 190 190 190 190 190 190 102 40 40 40 54 54 54
 54 54 225 225 225 119 119 119 119 119 181 181 181 181 181 181 190 190 190 190
 190 190 102 102 102 102 102 136 136 136 136 225 225 225 119 119 119 119 226 226
 226 226 181 181 190 190 190 190 190 190 102 102 102 102 102 102 136 136 136 136
 225 225 225 119 119 119 119 226 226 226 226 226 118 195 195 190 190 190 190 102
 102 102 102 102 102 136 136 136 136 136 225 186 186 119 119 119 226 226 226 226
 118 118 118 195 195 195 190 190 102 102 102 102 102 136 136 136 136 136 132 132
 132 186 186 186 186 226 226 226 118 118 118 118 118 93 93 93 93 241 241 102
 102 102 102 136 136 136 132 132 132 132 132 186 186 186 226 226 226 118 118 118
 118 118 93 93 93 120 120 241 241 241 29 29 29 29 29 132 132 132 132 132
 186 186 186 51 51 51 118 118 118 118 118 93 93 120 120 120 120 241 29 29
 29 29 29 29 29 132 132 132 132 186 186 186 51 51 51 51 118 118 118 135
 93 120 120 120 120 120 120 29 29 29 29 29 29 29 132 132 132 132 186 186
 51 51 51 51 51 51 118 118 135 192 120 120 120 120 120 120 29 29 29 29
 29 29 29 29 166 166 166 166 166 51 51 51 51 51 51 118 192 192 192 120
 120 120 120 120 120 29 29 29 29 29 29 29 29 166 166 166 166 223 51 51
 51 51 51 51 192 192 192 215 215 192 120 120 120 120 20 29 29 29 29 29
 29 29 166 166 166 223 223 223 51 51 51 51 36 36 36 36 215 215 215 215
 120 44 44 20 20 140 140 140 140 140 140 205 205 205 223 223 223 223 51 51
 143 36 36 36 36 215 215 215 215 44 44 44 44 140 140 140 140 140 140 140
 205 205 205 223 223 223 134 134 134 143 143 143 36 36 215 215 215 215 44 44
 44 44 44 140 140 140 140 140 154 243 243 243 243 167 167 134 134 134 143 143
 143 143 36 215 215 215 4 44 44 44 44 61 140 140 140 140 140 154 243 243
 243 243 243 134 134 134 134 143 143 143 143 143 36 4 4 4 4 44 44 44
 61 61 140 140 140 154 154 243 243 243 243 243 134 134 134 134 134 143 143 143
 143 36 4 4 4 4 44 44 44 61 61 61 61 154 154 154 243 243 243 243
 134 134 134 134 134 134 143 143 143 143 4 4 4 4 4 4 3 3 3 95
 95 95 95 95 154 243 243 243 243 134 134 134 134 134 134 8 8 219 219 219
 4 4 4 4 4 3 3 3 95 95 95 95 95 95 172 172 172 172 134 134
 134 134 90 90 90 219 219 219 219 219 4 4 4 3 3 3 3 95 95 95
 95 95 95 172 172 172 172 149 134 134 90 90 90 90 219 219 219 219 219 219
 242 242 242 3 3 3 95 95 95 95 95 95 172 172 149 149 149 149 149 90
 90 90 90 219 219 219 219 219 219 242 242 242 242 242 3 95 95 95 95 37
 37 149 149 149 149 149 149 149 90 90 90 90 219 219 219 219 219 242 242 242
 242 242 242 242 37 37 37 37 37 37 14 14 149 149 149 149 106 106 106 90
 90 219 219 219 219 219 242 242 242 242 242 40 40 40 37 37 37 37 37 14
 14 14 149 149 149 106 106 106 106 90 219 219 219 219 219 242 242 242 242 242
 40 40 40 54 54 37 37 37 14 14 14 14 149 106 106 106 106 106 181 181
 219 219 219 211 211 211 242 242 40 40 40 54 54 54 54 54 37 14 14 14
 14 106 106 106 106 106 106 181 181 39 53 211 211 211 211 242 40 40 40 40
 54 54 54 54 54 54 225 14 14 14 106 106 106 106 106 181 181 181 181 53
 97 97 97 97 242 40 40 40 40 54 54 54 54 54 225 225 225 225 119 106
 106 119 106 181 181 181 181 181 53 97 97 97 97 97 102 40 40 40 54 54
 54 54 225 225 225 225 225 119 119 119 119 106 181 181 181 181 181 97 97 97
 97 97 102 102 102 102 102 102 136 136 136 225 225 225 225 119 119 119 119 119
 226 226 181 181 181 181 190 190 97 97 97 141 102 102 102 102 102 136 136 136
 136 225 225 225 119 119 119 119 119 226 226 226 226 118 195 195 190 190 190 141
 141 102 102 102 102 102 136 136 136 136 131 131 225 119 119 119 119 226 226 226
 226 118 118 118 195 93 93 93 141 141 102 102 102 102 102 136 136 136 136 132
 132 132 186 186 186 186 220 220 220 118 118 118 118 93 93 93 93 93 241 241
 241 102 102 29 29 29 29 132 132 132 132 132 186 186 186 220 220 220 118 118
 118 118 93 93 93 93 93 241 241 241 241 29 29 29 29 29 29 132 132 132
 132 186 186 34 51 51 51 118 118 118 118 93 93 93 93 120 120 241 241 241
 29 29 29 29 29 29 132 132 132 132 186 34 34 51 51 51 51 118 118 135
 135 135 135 120 120 120 120 241 29 29 29 29 29 29 29 29 132 132 166 166
 166 236 236 51 51 236 236 22 135 135 135 135 120 120 120 120 120 29 29 29
 29 29 29 29 29 166 166 166 166 166 236 236 236 51 236 236 22 135 135 135
 135 120 120 120 120 120 29 29 29 29 29 29 29 29 166 166 166 166 166 236
 236 236 51 236 236 36 36 36 215 215 215 120 120 120 184 20 29 29 29 29
 29 29 29 166 166 166 166 166 236 236 236 51 236 36 36 36 36 215 215 215
 215 184 184 184 20 20 20 140 140 140 140 205 205 205 205 205 167 167 236 236
 51 143 36 36 36 36 215 215 215 215 184 184 184 184 20 20 140 140 140 140
 140 205 205 205 167 167 167 167 134 134 143 143 36 36 36 215 215 215 215 184
 184 184 184 20 20 140 140 140 140 154 154 205 205 167 167 167 134 134 134 143
 143 143 36 36 215 215 215 4 4 184 184 184 61 61 140 140 140 154 154 154
 243 243 167 167 167 134 134 134 143 143 143 143 36 36 215 4 4 4 4 184
 61 61 61 61 140 154 154 154 154 243 243 243 167 134 134 134 134 134 143 143
 143 143 4 4 4 4 4 4 44 61 61 61 61 61 154 154 154 154 243 243
 243 134 134 134 134 134 134 143 143 143 143 4 4 4 4 4 4 3 3 3
 61 61 133 95 154 154 154 243 243 202 134 134 134 134 134 134 143 143 143 219
 4 4 4 4 4 4 3 3 3 3 133 95 95 95 154 172 172 172 202 202
 134 134 134 90 90 90 219 219 219 219 219 4 4 4 3 3 3 3 3 95
 95 95 95 95 172 172 172 172 149 134 134 90 90 90 90 219 219 219 219 219
 219 4 242 3 3 3 3 3 95 133 133 133 133 172 172 149 149 149 149 149
 90 90 90 90 219 219 219 219 219 219 242 242 2 2 3 3 3 95 133 37
 37 37 14 14 14 149 149 149 149 90 90 90 90 219 219 219 219 219 242 242
 2 2 2 2 2 37 37 37 37 37 37 14 14 14 14 149 149 106 106 90
 90 90 219 219 219 219 219 242 242 2 2 2 2 40 40 37 37 37 37 37
 14 14 14 14 14 149 106 106 106 106 106 219 219 219 219 211 211 211 2 2
 2 40 40 40 54 37 37 37 37 14 14 14 14 14 106 106 106 106 106 106
 39 39 219 211 211 211 211 211 2 40 40 40 54 54 54 54 37 37 14 14
 14 14 106 106 106 106 106 106 106 39 39 53 211 211 211 211 211 2 40 40
 40 54 54 54 54 54 37 225 14 14 14 106 106 106 106 106 106 39 39 39
 53 97 97 97 97 97 2 40 40 40 54 54 54 54 54 225 225 225 225 119
 106 106 106 106 106 106 39 39 39 53 97 97 97 97 97 97 141 40 54 54
 54 54 54 225 225 225 225 225 119 119 119 119 106 106 181 39 39 39 97 97
 97 97 97 97 141 141 102 102 102 136 136 136 225 225 225 225 225 119 119 119
 119 119 66 66 39 39 39 97 97 97 97 97 141 141 141 102 102 102 136 136
 136 225 225 225 225 225 119 119 119 119 119 66 66 39 118 39 93 93 97 97
 97 141 141 141 102 102 102 136 136 136 136 131 131 131 119 119 119 119 119 119
 226 226 118 118 118 93 93 93 93 93 141 141 141 102 102 102 136 136 136 136
 131 131 131 119 119 119 119 220 220 220 220 118 118 93 93 93 93 93 93 241
 241 241 141 141 29 29 29 29 29 132 132 132 132 34 34 34 220 220 220 220
 220 135 135 93 93 93 93 93 241 241 241 241 29 29 29 29 29 29 132 132
 132 132 34 34 34 220 220 220 220 220 135 135 135 93 93 93 135 241 241 241
 241 29 29 29 29 29 29 29 132 132 132 34 34 34 236 236 236 236 22 22
 135 135 135 135 135 135 120 241 241 241 29 29 29 29 29 29 29 132 166 166
 166 166 34 236 236 236 236 22 22 135 135 135 135 135 135 120 120 241 234 234
 234 234 29 29 29 29 166 166 166 166 166 236 236 236 236 236 22 22 135 135
 135 135 135 135 120 120 184 234 234 234 234 29 29 29 29 166 166 166 166 166
 236 236 236 236 236 22 22 36 36 215 215 135 135 120 184 184 184 20 234 234
 29 29 29 29 166 166 166 166 166 236 236 236 236 236 22 36 36 36 215 215
 215 215 184 184 184 184 20 20 20 140 140 29 205 205 205 205 205 167 167 236
 236 236 236 36 36 36 36 215 215 215 215 184 184 184 184 20 20 20 140 140
 140 205 205 205 205 167 167 167 167 167 134 36 36 36 36 36 215 215 215 215
 184 184 184 184 20 20 20 140 140 154 154 205 205 205 167 167 167 167 134 134
 143 143 36 36 36 36 215 215 4 4 184 184 184 61 61 61 140 154 154 154
 154 243 243 167 167 167 134 134 134 143 143 143 36 36 36 215 4 4 4 4
 184 61 61 61 61 61 154 154 154 154 243 202 202 167 202 134 134 134 134 143
 143 143 163 4 4 4 4 4 4 157 61 61 61 61 61 154 154 154 154 202
 202 202 202 202 134 134 134 134 143 143 143 163 4 4 4 4 4 4 3 3
 3 61 61 133 133 154 154 154 202 202 202 202 202 134 134 134 90 90 143 219
 163 4 4 4 4 4 4 3 3 3 3 133 133 133 133 154 154 202 202 202
 202 202 134 90 90 90 90 90 219 219 219 4 4 4 4 3 3 3 3 3
 133 133 133 133 133 109 109 202 202 202 202 90 90 90 90 90 90 219 219 219
 239 239 4 4 3 3 3 3 3 133 133 133 133 133 14 14 14 14 202 149
 90 90 90 90 90 90 219 219 219 239 239 2 2 2 2 3 3 3 133 133
 37 37 37 14 14 14 14 14 149 90 90 90 90 90 90 219 219 219 239 239
 2 2 2 2 2 2 3 37 37 37 37 37 14 14 14 14 14 149 106 106
 90 90 90 90 219 219 219 239 211 2 2 2 2 2 2 2 37 37 37 37
 37 14 14 14 14 14 14 106 106 106 106 39 39 219 219 219 211 211 211 2
 2 2 2 2 227 227 37 37 37 37 14 14 14 14 14 106 106 106 106 106
 39 39 39 53 53 211 211 211 211 2 2 2 40 54 227 227 227 37 37 14
 14 14 14 106 106 106 106 106 106 39 39 39 53 53 211 211 211 211 2 2
 2 40 54 54 54 227 70 70 70 14 14 14 106 106 106 106 106 106 39 39
 39 53 53 97 97 97 97 2 2 40 56 54 54 54 70 70 225 225 225 225
 225 106 106 66 66 66 39 39 39 39 53 97 97 97 97 97 97 141 56 56
 56 56 54 70 225 225 225 225 225 119 119 66 66 66 66 66 39 39 39 97
 97 97 97 97 97 141 141 141 56 56 56 136 225 225 225 225 225 225 119 119
 119 66 66 66 66 39 39 39 97 97 97 97 97 141 141 141 141 141 56 136
 136 136 225 225 225 225 225 119 119 119 66 66 66 66 39 39 39 97 97 97
 97 97 141 141 141 141 141 102 136 136 136 131 131 131 131 131 119 119 119 66
 66 66 66 39 39 93 93 93 93 93 93 141 141 141 141 141 102 136 136 136
 131 131 131 131 131 119 119 119 220 220 220 220 220 93 93 93 93 93 93 93
 241 241 241 141 141 29 29 29 29 29 29 131 132 34 34 34 34 220 220 220
 220 220 135 135 135 93 93 93 135 241 241 241 241 29 29 29 29 29 29 29
 132 132 34 34 34 34 220 220 220 220 220 135 135 135 135 135 135 135 241 241
 241 241 29 29 29 29 29 29 29 132 132 34 34 34 34 236 236 236 236 22
 22 135 135 135 135 135 135 135 241 241 234 234 234 234 29 29 29 29 166 166
 166 166 34 34 236 236 236 236 22 22 22 135 135 135 135 135 135 241 241 234
 234 234 234 234 29 29 29 166 166 166 166 166 236 236 236 236 22 22 22 22
 135 135 135 135 135 135 135 184 234 234 234 234 234 234 29 29 166 166 166 166
 166 236 236 236 236 22 22 22 22 135 135 135 135 135 135 184 184 184 20 234
 234 234 29 29 29 166 166 166 166 166 236 236 236 236 22 22 22 36 36 215
 215 215 135 184 184 184 184 20 20 20 234 29 29 29 205 205 205 205 167 167
 236 236 236 22 22 36 36 36 215 215 215 215 184 184 184 184 20 20 20 140
 140 154 103 205 205 205 167 167 167 167 167 236 36 36 36 36 36 215 215 215
 215 184 184 184 184 184 20 20 154 154 154 154 103 205 205 167 167 167 167 134
 134 143 143 36 36 36 36 215 215 4 4 184 184 184 184 61 61 154 154 154
 154 154 103 205 167 167 167 202 134 134 143 143 163 163 36 36 215 4 4 4
 157 184 184 61 61 61 154 154 154 154 154 202 202 202 202 202 202 134 134 134
 163 163 163 163 163 4 4 4 4 157 157 157 61 61 61 61 154 154 154 154
 202 202 202 202 202 202 202 134 134 163 163 163 163 163 4 4 4 4 157 157
 157 3 61 61 133 154 154 154 154 202 202 202 202 202 202 202 134 90 10 10
 10 163 163 4 4 4 4 157 3 3 3 3 133 133 133 133 154 202 202 202
 202 202 202 202 90 90 90 90 10 10 239 239 239 4 4 4 3 3 3 3
 3 133 133 133 133 133 109 109 202 202 202 202 202 90 90 90 90 90 10 239
 239 239 239 239 4 3 3 3 3 3 133 133 133 133 133 109 109 109 109 202
 202 90 90 90 90 90 90 139 239 239 239 239 239 2 2 2 3 3 3 133
 133 37 37 37 14 14 14 14 14 14 90 90 90 90 90 90 139 139 239 239
 239 2 2 2 2 2 2 3 37 37 37 37 37 14 14 14 14 14 14 106
 106 90 90 90 90 139 139 239 239 239 2 2 2 2 2 2 227 227 37 37
 37 37 14 14 14 14 14 14 106 106 106 106 39 39 39 139 239 211 211 211
 2 2 2 2 2 227 227 227 227 37 37 14 14 14 14 14 106 106 106 106
 106 39 39 39 53 53 211 211 211 211 2 2 2 40 227 227 227 227 70 70
 70 14 14 14 14 106 106 106 106 39 39 39 39 53 53 53 211 211 211 230
 230 230 56 227 227 227 227 70 70 70 14 14 14 106 106 106 106 106 39 39
 39 39 53 53 97 97 97 230 230 230 56 56 56 227 227 70 70 70 225 225
 225 225 106 106 66 66 66 39 39 39 39 53 53 97 97 97 97 230 230 56
 56 56 56 70 70 70 225 225 225 225 225 66 66 66 66 66 66 39 39 39
 53 97 97 97 97 97 141 141 141 56 56 56 56 70 225 225 225 225 225 119
 66 66 66 66 66 66 39 39 39 53 97 97 97 97 141 141 141 141 56 56
 56 56 136 225 225 225 225 225 119 66 66 66 66 66 66 39 39 39 53 97
 97 97 97 141 141 141 141 141 56 56 56 136 131 131 131 131 131 119 119 66
 220 220 220 66 39 39 39 93 93 93 93 93 141 141 141 141 141 56 136 136
 136 131 131 131 131 131 34 34 34 220 220 220 220 220 135 135 135 155 155 155
 135 241 241 241 141 183 29 29 29 29 29 29 131 34 34 34 34 34 220 220
 220 220 220 135 135 135 155 155 155 135 135 241 241 241 29 29 29 29 29 29
 29 29 34 34 34 34 34 220 220 220 220 220 22 135 135 135 135 135 135 135
 241 241 29 29 29 29 29 29 29 29 29 34 34 34 34 34 220 220 220 220
 22 22 22 135 135 135 135 135 135 241 241 234 234 234 234 29 29 29 29 29
 166 34 34 34 34 236 236 236 22 22 22 22 135 135 135 135 135 135 135 135
 234 234 234 234 234 29 29 29 166 166 166 166 166 236 236 236 236 22 22 22
 22 135 135 135 135 135 135 135 184 234 234 234 234 234 234 29 29 166 166 166
 166 166 236 236 236 236 22 22 22 22 135 135 135 135 135 135 184 184 184 234
 234 234 234 234 29 29 166 166 166 166 166 236 236 236 236 22 22 22 36 36
 215 215 215 135 184 184 184 184 184 20 20 234 234 103 103 103 205 205 205 167
 167 236 236 236 22 22 36 36 36 215 215 215 215 184 184 184 184 184 20 20
 20 103 103 103 103 103 205 167 167 167 167 167 236 22 36 36 36 36 36 215
 215 215 184 184 184 184 184 20 20 154 154 154 103 103 103 205 167 167 167 202
 202 46 36 36 36 36 36 36 215 215 4 171 184 184 184 184 61 61 154 154