# vtk DataFile Version 2.0
Data set from ImportExport Version 6.5.171.b0b162591
ASCII

DATASET RECTILINEAR_GRID
DIMENSIONS 30 30 30
X_COORDINATES 30 float
-1.250000 1.250000 3.750000 6.250000 8.750000 11.250000 13.750000 16.250000 18.750000 21.250000 23.750000 26.250000 28.750000 31.250000 33.750000 36.250000 38.750000 41.250000 43.750000 46.250000 48.750000 
51.250000 53.750000 56.250000 58.750000 61.250000 63.750000 66.250000 68.750000 71.250000 
Y_COORDINATES 30 float
-1.250000 1.250000 3.750000 6.250000 8.750000 11.250000 13.750000 16.250000 18.750000 21.250000 23.750000 26.250000 28.750000 31.250000 33.750000 36.250000 38.750000 41.250000 43.750000 46.250000 48.750000 
51.250000 53.750000 56.250000 58.750000 61.250000 63.750000 66.250000 68.750000 71.250000 
Z_COORDINATES 30 float
-1.250000 1.250000 3.750000 6.250000 8.750000 11.250000 13.750000 16.250000 18.750000 21.250000 23.750000 26.250000 28.750000 31.250000 33.750000 36.250000 38.750000 41.250000 43.750000 46.250000 48.750000 
51.250000 53.750000 56.250000 58.750000 61.250000 63.750000 66.250000 68.750000 71.250000 
CELL_DATA 24389
SCALARS FeatureIds int 1
LOOKUP_TABLE default
<<<<<<< Updated upstream
 4 4 4 206 206 206 32 32 32 32 15 15 15 15 188 188 188 188 188 249
 249 249 249 249 249 249 4 4 4 4 4 4 206 206 206 32 32 32 206 15
 15 15 15 188 188 188 188 188 249 249 249 249 249 249 249 4 4 4 4 85
 85 206 206 206 32 32 32 32 32 15 15 15 108 188 188 188 249 249 249 249
 249 249 249 249 4 4 4 85 85 85 134 134 134 134 206 32 32 32 15 108
 108 108 108 108 108 249 249 249 249 249 249 249 249 4 4 4 85 85 85 134
 134 134 134 134 134 134 235 235 108 108 108 108 108 108 108 89 89 249 249 249
 249 219 219 4 85 85 85 85 134 134 134 134 190 190 190 235 235 141 108 108
 108 108 108 108 89 89 249 219 219 219 219 219 219 85 85 85 85 134 134 134
 190 190 190 235 235 235 141 108 108 108 108 108 108 108 89 219 219 219 219 219
 219 219 85 71 85 85 221 221 190 190 190 190 235 235 235 235 141 108 108 108
 108 108 230 230 230 230 219 219 219 219 219 71 71 71 71 221 221 221 190 190
 190 235 235 235 197 141 237 237 237 237 40 230 230 230 230 230 219 219 219 71
 71 71 71 71 221 221 221 221 190 190 235 197 197 197 197 237 237 237 237 237
 230 230 230 230 230 230 219 219 71 71 71 71 71 221 221 221 221 221 190 197
 197 197 197 197 237 237 237 237 237 237 230 230 230 230 230 230 24 71 71 71
 71 84 84 84 84 84 84 84 197 197 197 197 197 237 237 237 237 237 237 230
 230 230 230 230 24 24 24 24 24 24 84 84 84 84 84 84 197 197 197 197
 197 197 237 237 237 138 138 138 230 230 230 230 24 24 24 24 24 24 24 127
 231 231 231 231 231 34 34 34 34 34 34 237 237 138 138 138 138 138 240 240
 24 24 24 24 24 24 127 127 127 127 231 231 184 155 155 155 34 34 34 34
 237 237 138 138 138 179 240 240 240 240 24 24 24 24 24 127 127 127 127 231
 184 184 184 155 155 155 34 34 34 179 179 179 179 179 179 240 240 240 240 240
 240 24 24 24 127 127 127 127 184 184 184 184 184 155 155 34 34 34 179 179
 179 179 179 179 240 240 240 240 240 240 240 24 24 160 160 160 160 184 184 184
 184 184 184 155 208 208 208 179 179 179 179 179 240 240 240 240 240 240 240 223
 223 24 160 160 160 160 184 184 184 184 184 184 208 208 208 208 149 149 149 149
 179 240 240 240 240 240 240 223 223 223 223 160 160 132 132 184 184 184 184 184
 208 208 208 208 208 149 149 149 149 149 240 240 240 240 240 240 223 223 223 223
 132 132 132 132 132 184 184 184 184 208 208 208 208 149 149 149 149 149 149 33
 176 176 176 176 176 223 223 223 223 132 132 132 132 132 222 222 2 178 22 22
 22 208 149 149 149 149 149 33 33 33 176 176 176 176 223 223 223 223 132 132
 132 132 132 222 222 2 178 178 178 22 22 149 149 149 149 149 12 33 33 176
 176 176 176 176 223 223 223 169 169 132 132 2 222 2 2 178 178 178 178 178
 149 149 149 149 12 12 33 136 136 136 176 176 176 223 223 169 169 169 169 2
 2 2 2 2 178 178 178 178 178 188 188 188 188 188 12 136 136 136 136 136
 176 176 223 169 169 169 169 169 2 2 2 2 2 2 178 15 15 15 188 188
 188 188 188 188 136 136 136 55 55 55 55 55 169 169 169 169 169 2 2 2
 2 187 187 187 15 15 15 15 188 188 188 188 188 188 55 55 55 55 55 55
 55 169 169 169 169 169 2 2 2 187 187 187 187 15 15 15 15 188 188 188
 188 188 188 249 249 55 55 55 55 55 4 4 169 169 169 2 2 2 187 187
 187 187 15 15 15 15 188 188 188 188 188 188 249 249 249 55 55 55 4 4
 4 4 165 165 165 32 32 32 32 32 32 15 15 15 15 188 188 188 188 249
 249 249 249 249 249 249 249 4 4 4 4 4 165 32 32 32 32 32 32 32
 15 15 15 15 188 188 188 188 249 249 249 249 249 249 249 249 4 4 4 4
 85 85 32 32 32 32 32 32 32 32 15 15 15 108 188 188 188 249 249 249
 249 249 249 249 249 4 4 4 85 85 85 134 134 134 134 32 32 32 32 15
 141 141 108 108 108 108 89 89 89 89 249 249 249 249 87 87 87 85 85 85
 134 134 134 134 134 32 32 32 141 141 141 108 108 108 108 89 89 89 89 89
 89 249 87 87 87 87 85 85 85 134 134 134 134 190 190 190 235 141 141 141
 141 141 108 108 89 89 89 89 89 219 219 219 219 87 87 85 85 85 134 134
 134 190 190 190 190 235 141 141 141 141 141 108 108 108 89 89 89 219 219 219
 219 219 219 87 71 85 85 221 221 134 190 190 190 190 235 141 141 141 141 141
 141 141 40 40 230 230 230 219 219 219 219 219 219 71 71 221 221 221 221 190
 190 190 190 235 141 141 141 141 141 237 237 40 40 230 230 230 230 219 219 219
 219 219 71 71 221 221 221 221 221 190 190 197 197 197 197 141 237 237 237 237
 40 40 230 230 230 230 230 219 219 219 71 71 71 221 221 221 221 221 221 190
 197 197 197 197 197 237 237 237 237 237 40 230 230 230 230 230 230 24 71 71
 71 71 84 84 84 84 84 84 84 197 197 197 197 197 237 237 237 237 237 237
 230 230 230 230 230 24 24 24 24 24 24 84 84 84 84 84 231 231 197 197
 197 197 197 237 237 237 237 237 179 179 230 230 230 24 24 24 24 24 24 24
 231 231 231 231 231 231 231 197 197 197 197 197 237 237 237 179 179 179 179 240
 240 240 24 24 24 24 24 127 127 127 231 231 231 231 231 155 155 34 34 34
 34 237 179 179 179 179 179 179 240 240 240 240 24 24 24 24 127 127 127 231
 231 231 128 184 184 184 155 34 34 34 179 179 179 179 179 179 240 240 240 240
 240 240 24 24 24 127 127 127 231 231 184 184 184 184 184 155 34 34 179 179
 179 179 179 179 179 240 240 240 240 240 240 240 240 24 160 160 160 160 184 184
 184 184 184 184 184 208 208 16 179 179 179 179 179 179 240 240 240 240 240 240
 240 240 240 160 160 160 184 184 184 184 184 184 184 208 208 208 208 16 179 179
 179 179 240 240 240 240 240 240 240 240 240 240 160 160 132 132 184 184 184 184
 184 184 208 208 208 208 149 149 149 149 179 212 212 212 212 240 240 240 223 223
 223 132 132 132 132 132 184 184 184 184 178 208 208 208 149 149 149 149 149 33
 33 33 212 176 176 176 176 223 223 223 132 132 132 132 132 222 222 222 178 178
 178 22 208 149 149 149 12 12 33 33 33 33 176 176 176 176 223 223 223 132
 132 132 132 222 222 222 222 178 178 178 178 178 149 149 12 12 12 12 33 33
 33 176 176 176 176 176 176 176 132 132 132 132 222 222 222 2 178 178 178 178
 178 178 149 12 12 12 12 33 33 136 136 176 176 176 176 176 169 169 169 2
 2 2 2 2 2 178 178 178 178 178 178 188 12 12 12 12 12 136 136 136
 136 176 176 176 169 169 169 165 2 2 2 2 2 2 2 178 15 15 15 15
 188 188 188 188 12 136 136 136 136 55 55 55 55 169 169 165 165 2 2 2
 2 2 187 187 187 15 15 15 15 188 188 188 188 188 188 136 55 55 55 55
 55 55 165 165 165 165 165 2 2 2 187 187 187 187 15 15 15 15 188 188
 188 188 188 188 249 55 55 55 55 55 55 4 165 165 165 165 2 2 187 187
 187 187 187 15 15 15 15 188 188 188 188 188 249 249 249 249 55 55 55 4
 4 4 165 165 165 165 32 32 32 32 32 32 15 15 15 15 65 65 65 65
 249 249 249 249 249 249 249 249 249 4 4 165 165 165 165 32 32 32 32 32
 32 32 15 15 15 65 65 65 65 249 249 249 249 249 249 249 249 249 4 4
 165 165 165 134 134 32 32 32 32 32 32 15 18 18 18 18 18 89 89 89
 89 89 249 249 249 249 249 87 87 87 87 134 134 134 134 119 32 32 32 32
 18 18 18 18 18 18 89 89 89 89 89 89 249 249 249 87 87 87 87 87
 134 134 134 134 119 119 119 119 119 141 141 141 141 141 141 89 89 89 89 89
 89 89 249 87 87 87 87 87 87 119 119 119 134 119 119 190 190 190 141 141
 141 141 141 141 141 89 89 89 89 89 219 219 219 87 87 87 87 87 119 119
 119 119 119 190 190 190 190 141 141 141 141 141 141 40 40 89 89 89 89 219
 219 219 219 87 87 87 87 119 119 119 119 190 190 190 190 190 141 141 141 141
 141 141 40 40 40 40 230 230 219 219 219 219 219 87 71 71 221 221 221 221
 190 190 190 190 190 141 141 141 141 141 141 40 40 40 40 230 230 230 219 219
 219 219 87 71 71 221 221 221 221 221 190 190 197 197 197 141 141 141 237 237
 237 40 40 40 230 230 230 230 219 219 219 71 71 71 221 221 221 221 221 221
 190 197 197 197 197 197 237 237 237 237 40 40 40 230 230 230 230 230 219 219
 71 71 84 84 84 84 84 84 231 231 197 197 197 197 197 237 237 237 237 237
 40 40 230 230 230 230 230 24 24 24 24 231 231 231 231 231 231 231 231 197
 197 197 197 197 237 237 237 237 237 179 179 230 230 230 230 24 24 24 24 24
 177 231 231 231 231 231 231 231 197 197 197 197 197 237 237 179 179 179 179 179
 179 240 240 24 24 24 24 24 177 177 231 231 231 231 231 231 231 128 197 34
 197 179 179 179 179 179 179 179 179 240 240 240 240 240 24 24 24 177 177 231
 231 231 231 128 128 128 128 128 34 16 179 179 179 179 179 179 179 179 240 240
 240 240 240 240 24 24 177 177 231 231 231 128 128 128 128 128 128 16 16 16
 179 179 179 179 179 179 240 240 240 240 240 240 240 240 24 160 177 160 231 128
 128 128 128 128 128 128 16 16 16 179 179 179 179 179 179 240 240 240 240 240
 240 240 240 240 160 160 132 128 128 128 128 128 128 128 128 16 16 16 16 179
 179 179 179 179 212 212 212 240 240 240 240 240 240 132 132 132 132 128 128 128
 128 128 128 128 208 16 16 16 149 179 179 179 212 212 212 212 212 240 240 223
 223 223 132 132 132 132 132 128 128 128 128 128 208 208 208 16 149 12 12 12
 33 33 33 212 212 176 176 176 176 176 176 132 132 132 132 132 222 222 222 178
 178 178 178 208 111 12 12 12 12 33 33 33 33 176 176 176 176 176 176 176
 132 132 132 132 222 222 222 222 178 178 178 178 178 111 12 12 12 12 12 33
 33 33 176 176 176 176 176 176 176 132 132 132 132 222 222 222 2 178 178 178
 178 178 111 12 12 12 12 12 33 33 136 136 176 176 176 176 176 165 165 132
 2 2 2 2 2 2 178 178 178 178 15 111 12 12 12 12 12 12 136 136
 136 136 176 176 176 165 165 165 165 165 2 2 2 2 2 187 178 15 15 15
 15 12 12 12 12 12 12 136 136 136 55 55 55 55 165 165 165 165 165 2
 2 2 2 187 187 187 15 15 15 15 188 188 188 188 12 12 136 55 55 55
 55 55 55 165 165 165 165 165 165 2 2 187 187 187 187 15 15 15 15 188
 188 188 188 188 249 249 249 55 55 55 55 55 165 165 165 165 165 165 2 187
 187 187 187 187 15 15 15 15 65 188 188 188 188 249 249 249 249 55 55 249
 249 165 165 165 165 165 165 165 32 32 32 32 32 15 15 15 65 65 65 65
 65 65 249 249 249 249 249 249 249 249 249 4 165 165 165 165 32 32 32 32
 32 32 32 15 18 65 65 65 65 65 89 89 89 89 249 249 249 249 249 249
 87 165 165 165 119 119 119 32 32 32 32 32 18 18 18 18 18 18 89 89
 89 89 89 89 249 249 249 87 87 87 87 87 119 119 119 119 119 119 119 119
 119 18 18 18 18 18 18 18 89 89 89 89 89 89 249 87 87 87 87 87
 87 119 119 119 119 119 119 119 119 141 141 18 18 18 18 18 18 89 89 89
 89 89 89 89 87 87 87 87 87 87 119 119 119 119 119 119 119 119 141 141
 141 141 141 141 141 141 89 89 89 89 89 89 219 87 87 87 87 87 87 119
 119 119 119 119 119 190 190 141 141 141 141 141 141 141 40 40 40 89 89 89
 219 219 219 87 87 87 87 87 119 119 119 119 190 190 190 190 141 141 141 141
 141 141 141 40 40 40 40 40 219 219 219 219 219 87 87 87 87 221 221 221
 221 190 190 190 190 141 141 141 141 141 141 40 40 40 40 40 40 230 230 219
 219 219 219 87 115 115 221 221 221 221 221 190 190 197 197 141 141 141 141 141
 237 40 40 40 40 40 230 230 230 219 219 219 71 115 115 209 209 209 209 209
 209 190 197 197 197 197 141 237 237 237 40 40 40 40 40 230 230 230 230 219
 219 71 115 231 231 231 231 231 231 231 231 197 197 197 197 197 237 237 237 40
 40 40 40 233 230 230 230 230 24 24 115 115 177 231 231 231 231 231 231 231
 197 197 197 197 197 237 237 237 179 179 40 40 13 230 230 230 46 46 24 24
 177 177 231 231 231 231 231 231 231 197 197 197 197 197 237 179 179 179 179 179
 179 13 13 240 46 46 46 46 24 177 177 177 231 231 231 231 231 231 128 197
 197 16 179 179 179 179 179 179 179 179 179 240 240 46 46 46 46 177 177 177
 177 231 231 231 128 128 128 128 128 16 16 16 179 179 179 179 179 179 179 240
 240 240 46 46 46 46 177 177 177 177 231 231 128 128 128 128 128 128 16 16
 16 16 179 179 179 179 179 179 240 240 240 240 46 46 46 177 177 177 177 231
 231 128 128 128 128 128 128 16 16 16 16 179 179 179 179 179 212 212 240 240
 240 240 240 240 240 177 177 177 128 128 128 128 128 128 128 128 16 16 16 16
 16 179 179 179 179 212 212 212 212 240 240 240 240 240 132 132 132 31 128 128
 128 128 128 128 128 16 16 16 16 16 179 179 179 212 212 212 212 212 212 240
 240 240 240 132 132 132 31 31 128 128 128 128 128 128 96 16 16 16 12 12
 33 33 33 33 212 212 212 212 176 176 176 176 132 132 132 31 31 31 222 128
 178 178 178 96 111 111 111 12 12 12 33 33 33 33 33 176 176 176 176 176
 176 31 31 31 31 31 31 222 82 178 178 178 178 111 111 111 12 12 12 12
 33 33 33 33 176 176 176 176 176 10 31 31 31 31 31 2 2 82 82 178
 178 178 111 111 111 12 12 12 12 33 33 33 33 176 176 176 185 185 10 31
 31 31 31 31 2 2 82 82 178 178 111 111 111 111 12 12 12 12 12 33
 136 136 136 136 136 185 165 165 165 165 165 31 2 2 2 82 82 178 15 15
 111 111 111 12 12 12 12 12 136 136 136 55 55 55 150 165 165 165 165 165
 165 2 2 2 187 187 187 15 15 15 15 65 65 65 12 12 12 136 55 55
 55 55 55 55 165 165 165 165 165 165 2 2 187 187 187 215 15 15 15 15
 65 65 65 65 188 249 249 249 55 55 55 55 55 165 165 165 165 165 165 2
 187 187 187 187 187 15 15 15 65 65 65 65 65 65 249 249 249 249 249 249
 249 249 165 165 165 165 165 165 165 224 32 32 32 215 215 15 65 65 65 65
 65 65 65 1 1 1 1 249 249 249 249 249 87 165 165 165 165 224 224 224
 224 224 224 224 18 18 65 65 65 65 65 89 89 1 1 1 249 249 249 249
 87 87 139 139 139 119 119 224 224 224 224 224 224 18 18 18 18 18 65 65
 89 89 89 89 89 89 249 249 87 87 87 87 139 139 119 119 119 119 224 224
 224 224 18 18 18 18 18 18 18 89 89 89 89 89 89 89 87 87 87 87
 87 87 119 119 119 119 119 119 224 224 224 18 18 18 18 18 18 18 89 89
 89 89 89 89 89 87 87 87 87 87 87 119 119 119 119 119 119 119 224 141
 141 141 18 18 18 18 18 89 89 89 89 89 89 87 87 87 87 87 87 87
 119 119 119 119 119 119 190 190 141 141 141 141 141 141 141 40 40 40 40 89
 89 219 219 87 87 87 87 87 148 148 148 119 119 119 190 190 190 141 141 141
 141 141 141 40 40 40 40 40 40 40 47 219 219 87 87 87 87 148 148 148
 221 221 190 190 190 190 141 141 141 141 141 141 40 40 40 40 40 40 47 47
 47 219 219 219 87 115 115 209 209 209 209 209 209 190 166 141 141 141 141 141
 141 40 40 40 40 40 40 47 47 47 47 219 219 87 115 115 209 209 209 209
 209 209 209 166 197 197 197 141 237 237 40 40 40 40 40 40 230 47 47 47
 219 219 115 115 115 209 209 209 209 209 209 209 197 197 197 197 197 237 237 237
 40 40 40 40 233 233 230 47 47 46 115 115 115 177 231 231 231 231 231 231
 231 166 197 197 197 252 237 237 179 179 179 40 40 13 13 13 46 46 46 46
 115 177 177 177 231 231 231 231 231 231 166 197 197 252 252 179 179 179 179 179
 179 13 13 13 46 46 46 46 46 177 177 177 177 231 231 231 231 231 231 128
 128 16 16 16 179 179 179 179 179 179 179 13 13 46 46 46 46 46 177 177
 177 177 116 116 116 116 128 128 128 128 16 16 16 16 179 179 179 179 179 179
 204 204 204 46 46 46 46 177 177 177 177 116 116 128 128 128 128 128 128 16
 16 16 16 179 179 179 179 179 179 204 204 204 204 46 46 46 177 177 177 177
 116 116 128 128 128 128 128 128 16 16 16 16 16 179 179 179 179 212 204 204
 204 204 204 46 46 177 177 177 177 128 128 128 128 128 128 128 128 16 16 16
 16 16 179 179 179 179 212 212 212 204 204 204 204 46 177 177 177 31 31 128
 128 128 128 128 50 50 16 16 16 16 16 16 179 33 212 212 212 212 212 212
 204 204 204 177 31 31 31 31 31 128 154 154 50 50 50 96 16 16 16 16
 12 33 33 33 33 212 212 212 212 212 212 212 10 31 31 31 31 31 31 31
 154 50 50 50 96 111 111 111 12 12 12 33 33 33 33 33 212 212 212 212
 185 10 31 31 31 31 31 31 82 82 82 82 178 111 111 111 111 12 12 12
 12 33 33 33 33 33 176 176 185 185 10 31 31 31 31 31 31 82 82 82
 82 178 111 111 111 111 12 12 12 12 33 33 33 33 33 185 185 185 185 10
 31 31 31 31 31 31 82 82 82 82 82 111 111 111 111 12 12 12 12 33
 33 33 33 136 185 150 185 185 10 165 165 31 31 31 31 82 82 82 82 82
 111 111 111 111 12 12 12 12 33 136 136 136 55 150 150 150 165 165 165 165
 165 165 31 2 82 82 215 215 215 15 111 111 65 65 65 12 12 33 136 55
 55 55 55 150 150 165 165 165 165 165 165 2 2 187 215 215 215 215 215 65
 65 65 65 65 65 65 249 249 249 55 55 55 55 150 165 165 165 165 165 165
 165 187 187 187 215 215 215 215 65 65 65 65 65 65 65 1 1 1 249 249
 249 249 165 165 165 165 165 165 238 224 224 224 224 224 215 215 215 97 97 97
 65 65 65 65 1 1 1 1 249 249 77 77 77 238 139 139 139 238 224 224
 224 224 224 224 224 18 18 97 97 97 97 97 89 89 1 1 1 249 249 249
 249 87 87 139 139 139 139 224 224 224 224 224 224 224 18 18 18 18 18 18
 18 89 89 1 1 89 89 89 89 87 87 87 139 139 139 139 119 224 224 224
 224 224 224 18 18 18 18 18 18 18 89 89 89 89 89 89 89 87 87 87
 87 139 139 139 119 119 119 224 224 224 224 224 18 18 18 18 18 18 99 99
 89 89 89 89 89 89 87 87 87 87 87 139 148 148 119 119 224 224 224 224
 224 18 18 18 18 18 18 99 99 99 99 89 89 89 89 87 87 87 87 87
 148 148 148 148 148 224 224 224 224 20 20 20 20 141 141 109 99 99 99 99
 89 89 47 47 87 87 87 87 148 148 148 148 148 148 148 224 224 224 20 20
 20 20 20 141 40 40 40 40 40 40 47 47 47 47 87 87 87 148 148 148
 148 148 148 148 190 166 166 20 20 20 20 20 141 40 40 40 40 40 40 47
 47 47 47 47 219 87 115 115 115 148 209 209 209 209 166 166 166 141 20 20
 20 20 40 40 40 40 40 40 47 47 47 47 47 47 115 115 115 115 209 209
 209 209 209 166 166 166 166 20 20 20 40 40 40 40 40 40 233 233 47 47
 47 47 115 115 115 115 115 209 209 209 209 209 166 166 166 166 252 252 252 252
 40 40 40 40 233 233 233 233 47 47 47 115 115 115 115 115 209 209 209 209
 209 166 166 166 252 252 252 252 252 179 179 40 233 233 13 13 13 47 46 46
 115 115 177 177 177 116 116 116 116 116 166 166 166 252 252 252 252 252 179 179
 179 13 13 13 13 13 46 46 46 46 177 177 177 177 116 116 116 116 116 116
 166 166 252 252 252 252 179 179 179 179 179 13 13 13 46 46 46 46 46 177
 177 177 177 116 116 116 116 116 128 128 16 16 16 16 16 179 179 179 179 179
 13 13 204 204 46 46 46 46 177 177 177 177 177 116 116 128 128 128 128 50
 16 16 16 16 16 179 179 179 179 13 204 204 204 204 46 46 46 177 177 177
 177 177 116 128 128 128 128 50 50 16 16 16 16 16 179 179 179 179 204 204
 204 204 204 204 46 46 177 177 177 177 177 154 154 154 154 50 50 50 16 16
 16 16 16 179 179 179 179 212 212 204 204 204 204 46 46 177 177 31 31 31
 154 154 154 154 50 50 50 16 16 16 16 16 16 179 33 212 212 212 212 204
 204 204 204 204 177 10 31 31 31 31 154 154 154 50 50 50 96 96 96 96
 96 96 33 33 33 33 33 212 212 212 204 204 204 10 10 31 31 31 31 31
 154 154 50 50 50 96 96 96 96 96 12 12 33 33 33 33 33 212 212 185
 185 185 10 10 31 31 31 31 31 82 82 82 82 50 111 111 111 111 111 12
 12 33 33 33 33 33 33 185 185 185 185 10 10 31 31 31 31 31 82 82
 82 82 82 111 111 111 111 111 12 12 94 33 33 33 33 185 185 185 185 185
 10 10 31 31 31 31 31 82 82 82 82 82 111 111 111 111 147 94 94 94
 33 33 33 33 185 185 150 185 185 10 165 31 31 31 31 31 82 82 82 82
 120 111 111 111 111 147 94 94 94 33 33 33 136 150 150 150 150 150 165 165
 165 165 31 31 31 82 82 215 215 215 215 111 65 65 65 65 94 94 33 33
 1 77 77 150 150 150 150 165 165 165 165 238 31 31 82 215 215 215 215 215
 215 65 65 65 65 65 65 1 1 1 1 77 77 150 150 165 165 165 165 165
 238 238 238 187 215 215 215 215 215 65 65 65 65 65 65 65 1 1 1 1
 249 77 77 77 165 165 238 238 238 238 238 224 224 224 224 224 224 97 97 97
 97 97 97 97 97 1 1 1 1 77 77 77 77 77 238 139 139 139 238 224
 224 224 224 224 224 224 224 97 97 97 97 97 97 97 1 1 1 1 1 77
 77 77 77 238 139 139 139 139 224 224 224 224 224 224 224 224 18 18 18 97
 97 97 89 89 1 1 1 89 89 199 199 87 139 139 139 139 139 224 224 224
 224 224 224 224 224 18 18 18 18 18 99 99 99 123 123 89 89 199 199 199
 87 139 139 139 139 139 224 224 224 224 224 224 224 224 18 18 18 18 109 99
 99 99 99 99 89 89 199 199 199 199 87 139 139 148 148 148 224 224 224 224
 224 224 20 20 18 18 18 109 109 99 99 99 99 89 89 199 199 199 199 199
 148 148 148 148 148 148 224 224 224 224 20 20 20 20 20 109 109 109 99 99
 99 99 99 47 199 199 199 199 199 148 148 148 148 148 148 224 224 224 224 20
 20 20 20 20 20 109 109 40 40 40 40 47 47 47 47 199 199 199 148 148
 148 148 148 148 148 166 166 166 20 20 20 20 20 20 109 40 40 40 40 47
 47 47 47 47 47 47 115 115 115 115 148 148 209 209 166 166 166 166 20 20
 20 20 20 40 40 40 40 40 47 47 47 47 47 47 47 115 115 115 115 115
 209 209 209 166 166 166 166 166 20 20 20 20 40 40 40 40 233 233 233 47
 47 47 47 115 115 115 115 115 115 209 209 209 166 166 166 166 166 252 252 252
 252 40 40 40 233 233 233 233 233 47 47 47 115 115 115 115 115 115 209 209
 209 166 166 166 166 166 252 252 252 252 252 246 233 233 233 13 13 13 47 47
 47 115 115 115 115 115 116 116 116 116 116 166 166 166 252 252 252 252 252 246
 246 246 13 13 13 13 13 46 46 46 46 115 177 177 177 116 116 116 116 116
 166 166 166 252 252 252 252 252 246 246 246 13 13 13 13 13 46 46 46 46
 177 177 177 177 116 116 116 116 116 116 50 16 16 16 16 16 246 246 246 246
 246 13 13 13 204 46 46 46 46 177 177 177 177 116 116 116 116 154 50 50
 50 16 16 16 16 16 246 246 246 246 13 204 204 204 46 46 46 46 177 177
 177 177 116 116 154 154 154 50 50 50 16 16 16 16 16 246 246 246 246 204
 204 204 204 204 204 46 46 177 177 177 177 154 154 154 154 154 50 50 50 16
 16 16 16 16 246 246 246 168 204 204 204 204 204 204 46 46 103 10 177 31
 154 154 154 154 154 50 50 50 50 96 96 96 96 96 246 168 168 212 204 204
 204 204 204 204 103 103 10 10 31 31 31 154 154 154 50 50 50 50 96 96
 96 96 96 94 94 33 17 17 17 212 204 204 185 185 10 10 10 31 31 31
 154 154 154 50 50 50 96 96 96 96 96 94 94 94 33 17 17 17 17 185
 185 185 185 10 10 10 31 31 31 31 154 82 82 50 50 96 96 147 147 147
 94 94 94 33 17 17 17 185 185 185 185 185 10 10 10 31 31 31 31 82
 82 82 82 120 147 147 147 147 147 94 94 94 94 33 33 33 185 185 185 185
 185 10 10 10 31 31 31 31 82 82 82 120 120 147 147 147 147 147 94 94
 94 94 33 33 185 185 185 150 185 185 10 10 10 31 31 31 31 82 82 82
 120 120 120 147 147 147 147 94 94 94 94 33 185 185 185 150 150 150 185 185
 238 238 238 238 31 31 82 82 120 120 120 120 147 65 65 65 65 94 94 173
 173 77 77 77 150 150 150 185 238 238 238 238 238 238 238 82 215 215 215 215
 215 65 65 65 65 65 65 194 173 173 1 77 77 77 77 77 77 238 238 238
 238 238 238 238 82 215 215 215 215 215 97 97 97 97 97 65 194 173 1 1
 1 77 77 77 77 77 238 238 238 238 238 238 224 224 224 224 224 224 97 97
 97 97 97 97 97 97 173 1 1 1 77 77 77 77 77 238 139 139 139 139
 224 224 224 224 224 224 224 224 97 97 97 97 97 97 97 123 123 123 123 77
 77 77 77 77 238 139 139 139 139 224 224 224 224 224 224 224 224 18 18 97
 97 97 97 123 123 123 123 123 123 199 199 199 139 139 139 139 139 139 224 224
 224 224 224 224 224 224 18 18 18 18 18 99 99 123 123 123 123 123 199 199
 199 199 139 139 139 139 139 224 224 224 224 224 224 224 224 18 18 18 109 109
 109 99 99 99 123 123 123 199 199 199 199 199 139 139 148 148 148 224 224 224
 224 224 224 20 20 20 20 109 109 109 99 99 99 99 123 199 199 199 199 199
 199 139 148 148 148 148 148 60 60 60 60 60 20 20 20 20 109 109 109 99
 99 99 99 99 199 199 199 199 199 199 148 148 148 148 148 148 60 60 60 60
 20 20 20 20 20 109 109 109 99 99 40 47 47 47 47 199 199 199 199 148
 148 148 148 148 148 60 60 60 166 20 20 20 20 20 20 109 109 40 40 40
 47 47 47 47 47 247 247 115 115 115 148 148 148 148 209 166 166 166 166 20
 20 20 20 20 40 40 40 40 233 47 47 47 47 47 247 247 115 115 115 115
 115 209 209 209 166 166 166 166 166 20 20 20 20 40 40 40 233 233 233 233
 47 47 47 247 247 115 115 115 115 115 209 209 209 166 166 166 166 166 252 252
 252 252 40 40 233 233 233 233 233 233 47 47 247 115 115 115 115 115 115 209
 209 209 166 166 166 166 166 252 252 252 252 252 233 233 233 233 13 13 13 13
 47 247 115 115 115 115 115 115 116 116 116 166 166 166 166 252 252 252 252 252
 246 246 246 13 13 13 13 13 13 46 46 115 115 112 112 112 116 116 116 116
 116 166 129 166 252 252 252 252 252 246 246 246 13 13 13 13 13 46 46 46
 46 112 112 112 112 116 116 116 116 116 129 129 129 252 252 252 252 246 246 246
 246 246 13 13 13 13 46 46 46 46 112 112 112 112 116 116 116 154 154 50
 50 50 16 16 16 16 246 246 246 246 168 168 13 204 204 204 46 46 46 112
 112 112 112 116 154 154 154 154 50 50 50 50 16 16 16 16 246 246 168 168
 168 204 204 204 204 204 46 46 103 112 112 112 154 154 154 154 154 50 50 50
 50 16 16 16 16 246 168 168 168 168 204 204 204 204 204 103 103 103 10 112
 154 154 154 154 154 154 154 50 50 50 96 96 96 96 96 168 168 168 168 17
 204 204 204 107 103 103 103 10 10 10 31 154 154 154 154 50 50 50 50 96
 96 96 96 96 94 94 17 17 17 17 17 204 185 185 103 10 10 10 10 31
 31 154 154 154 50 50 50 96 96 96 96 96 94 94 94 17 17 17 17 17
 185 185 185 185 10 10 10 10 31 31 63 63 63 63 50 50 96 96 96 96
 96 94 94 94 94 17 17 17 17 185 185 185 185 10 10 10 10 31 31 63
 63 63 63 120 120 147 147 147 147 147 94 94 94 94 17 17 17 185 185 185
 185 185 10 10 10 10 31 31 31 82 82 120 120 120 147 147 147 147 147 94
 94 94 94 94 17 185 185 185 185 185 185 10 238 10 10 31 31 31 82 82
 120 120 120 120 147 147 147 147 94 94 94 94 94 17 185 185 150 150 150 185
 185 238 238 238 238 238 31 82 120 120 120 120 120 147 147 65 194 194 194 194
 173 173 173 77 77 77 150 150 185 238 238 236 238 238 238 238 82 120 120 120
 120 120 97 97 97 97 194 194 194 173 173 173 77 77 77 77 77 77 238 238
 238 238 238 238 238 82 215 215 215 215 215 97 97 97 97 97 194 194 173 173
 1 77 77 77 77 77 77 238 238 238 238 238 238 224 224 224 224 224 224 97
 97 97 97 97 97 194 194 173 173 1 77 77 77 77 77 77 238 139 139 139
 207 224 224 224 224 224 224 224 224 97 97 97 97 97 194 194 123 123 123 123
 77 77 77 77 77 238 139 139 139 139 224 224 224 224 224 224 224 224 186 186
 97 97 97 195 195 123 123 123 123 123 77 77 199 199 139 139 139 139 139 224
 224 224 224 224 224 224 224 137 18 186 186 186 195 195 123 123 123 123 123 199
 199 199 199 139 139 139 139 139 224 224 224 224 224 224 224 224 20 18 18 109
 109 195 195 99 123 123 123 123 199 199 199 199 199 139 139 148 148 148 60 60
 60 60 60 60 20 20 20 20 109 109 109 99 99 99 99 123 123 199 199 199
 199 199 148 148 148 148 148 60 60 60 60 60 60 20 20 20 20 109 109 109
 99 99 99 99 123 199 199 199 199 199 199 148 148 148 148 148 148 60 60 60
 60 60 20 20 20 20 109 109 109 109 99 99 47 47 47 47 199 199 199 199
 148 148 148 148 148 148 60 60 60 152 152 20 20 20 20 20 109 109 109 40
 40 47 47 47 47 247 247 247 199 115 115 148 148 148 148 148 166 166 166 166
 20 20 20 20 20 109 40 40 233 233 47 47 47 47 247 247 247 115 115 115
 115 115 209 209 209 166 166 166 166 166 20 20 20 20 40 40 233 233 233 233
 47 47 47 247 247 247 115 115 115 115 115 209 209 209 166 166 166 166 166 252
 252 252 232 232 233 233 233 233 233 233 233 47 247 247 247 115 115 115 115 115
 209 209 209 166 166 166 166 166 252 252 252 232 232 232 233 233 233 13 13 13
 47 247 247 115 115 112 115 115 115 116 116 116 166 166 166 166 252 252 252 252
 232 232 246 246 13 13 13 13 13 13 46 46 115 115 112 112 112 112 116 116
 116 116 129 129 129 252 252 252 252 232 246 246 246 13 13 13 13 13 13 46
 46 112 112 112 112 112 112 116 116 116 129 129 129 129 252 252 252 252 246 246
 246 246 168 13 13 13 13 46 46 46 112 112 112 112 112 112 116 116 154 154
 129 129 129 16 16 16 16 246 246 246 168 168 168 168 107 107 107 107 46 112
 112 112 112 112 112 154 154 154 154 50 50 50 50 50 16 16 246 246 168 168
 168 168 168 107 107 107 107 103 103 103 112 112 112 154 154 154 154 154 154 50
 50 50 50 16 16 96 246 168 168 168 168 168 107 107 107 107 103 103 103 103
 103 112 154 154 154 154 154 154 50 50 50 96 96 96 96 96 168 168 168 168
 168 107 107 107 107 103 103 103 10 10 10 154 154 154 154 154 154 50 50 50
 96 96 96 96 96 94 168 168 17 17 17 107 107 103 103 103 103 10 10 10
 10 63 63 154 154 63 50 50 96 96 96 96 96 94 94 94 17 17 17 17
 17 185 185 185 185 10 10 10 10 10 63 63 63 63 63 63 50 147 96 96
 96 96 94 94 94 94 17 17 17 185 185 185 185 185 10 10 10 10 10 63
 63 63 63 63 63 63 147 147 147 147 147 94 94 94 94 17 17 17 185 185
 185 185 185 10 10 10 10 10 63 63 63 63 63 120 120 147 147 147 147 147
 94 94 94 94 94 17 185 185 185 185 185 185 185 238 10 10 10 31 63 63
 63 120 120 120 120 147 147 147 147 94 94 94 173 173 173 185 185 185 185 185
 185 185 238 238 238 238 238 63 63 120 120 120 120 120 147 147 147 194 194 194
 194 173 173 173 77 77 77 77 77 185 238 238 238 238 238 238 238 63 120 120
 120 120 120 147 97 97 194 194 194 194 173 173 173 77 77 77 77 77 77 238
 238 238 238 238 238 238 63 120 120 120 120 120 97 97 97 97 194 194 194 173
 173 173 77 77 77 77 77 77 238 207 207 207 207 207 224 224 224 224 224 224
 62 97 97 97 97 194 194 194 173 173 6 6 6 77 77 77 77 238 207 207
 207 207 207 224 224 224 224 224 224 224 186 186 186 186 186 194 194 123 123 123
 123 6 77 77 77 77 207 207 207 207 207 224 224 224 224 224 224 224 224 186
 186 186 186 186 195 195 123 123 123 123 123 77 199 199 199 207 139 139 139 139
 224 224 224 224 224 224 224 137 137 186 186 186 186 195 195 195 123 123 123 123
 199 199 199 199 199 139 139 139 60 60 60 60 60 60 60 60 137 137 137 186
 186 186 195 195 195 123 123 123 123 199 199 199 199 199 139 139 148 148 60 60
 60 60 60 60 60 137 137 137 137 109 109 195 195 195 195 123 123 199 199 199
 199 199 199 148 148 148 148 148 60 60 60 60 60 60 20 20 137 137 109 109
 109 195 195 195 99 47 199 199 199 199 199 199 148 148 148 148 148 60 60 60
 60 60 60 20 20 20 20 109 109 109 109 99 195 47 47 47 247 247 199 199
 199 148 148 148 148 148 148 60 60 152 152 152 152 20 20 20 20 109 109 109
 40 47 47 47 47 247 247 247 247 199 115 115 217 217 217 217 152 152 152 152
 152 152 20 20 20 20 109 40 233 233 233 47 47 47 247 247 247 247 247 115
 115 115 217 217 217 152 152 152 152 152 152 152 20 20 232 232 40 233 233 233
 233 47 47 247 247 247 247 115 115 115 115 171 171 192 192 166 166 166 153 153