# vtk DataFile Version 2.0
Data set from ImportExport Version 6.5.171.b0b162591
ASCII

DATASET RECTILINEAR_GRID
DIMENSIONS 30 30 30
X_COORDINATES 30 float
-1.250000 1.250000 3.750000 6.250000 8.750000 11.250000 13.750000 16.250000 18.750000 21.250000 23.750000 26.250000 28.750000 31.250000 33.750000 36.250000 38.750000 41.250000 43.750000 46.250000 48.750000 
51.250000 53.750000 56.250000 58.750000 61.250000 63.750000 66.250000 68.750000 71.250000 
Y_COORDINATES 30 float
-1.250000 1.250000 3.750000 6.250000 8.750000 11.250000 13.750000 16.250000 18.750000 21.250000 23.750000 26.250000 28.750000 31.250000 33.750000 36.250000 38.750000 41.250000 43.750000 46.250000 48.750000 
51.250000 53.750000 56.250000 58.750000 61.250000 63.750000 66.250000 68.750000 71.250000 
Z_COORDINATES 30 float
-1.250000 1.250000 3.750000 6.250000 8.750000 11.250000 13.750000 16.250000 18.750000 21.250000 23.750000 26.250000 28.750000 31.250000 33.750000 36.250000 38.750000 41.250000 43.750000 46.250000 48.750000 
51.250000 53.750000 56.250000 58.750000 61.250000 63.750000 66.250000 68.750000 71.250000 
CELL_DATA 24389
SCALARS FeatureIds int 1
LOOKUP_TABLE default
 197 197 197 197 197 197 197 143 143 143 173 173 173 23 23 39 165 165 165 165
 165 208 207 207 207 207 207 207 207 76 197 197 197 197 197 197 143 197 197 173
 173 173 173 23 39 39 39 39 39 39 208 207 207 207 207 207 207 207 76 76
 55 55 197 197 197 100 100 100 173 173 173 173 173 1 1 1 1 1 1 132
 132 132 207 207 207 207 207 76 76 55 55 100 100 100 100 100 100 173 173 173
 173 1 1 1 1 1 1 1 132 132 132 132 207 207 207 207 76 76 76 55
 100 100 100 100 100 100 173 173 173 173 1 1 1 1 1 1 1 132 132 132
 132 132 207 207 76 76 76 76 76 55 100 100 100 100 100 100 180 180 180 1
 1 1 1 1 1 1 132 132 132 132 132 207 76 76 76 76 76 76 76 100
 100 100 100 180 180 180 180 180 180 1 1 1 1 45 45 45 65 65 218 218
 102 76 76 76 76 76 76 76 212 120 120 120 180 180 180 180 180 180 167 167
 167 167 45 45 45 45 218 218 218 102 76 76 76 76 76 76 76 120 120 120
 120 180 180 180 180 180 180 167 167 167 167 45 45 45 45 218 218 218 102 102
 76 76 76 76 76 120 120 120 120 120 180 180 180 180 180 180 167 167 167 45
 45 45 45 45 218 218 218 218 218 76 76 76 76 76 120 120 120 120 120 180
 180 180 180 180 180 167 167 167 45 45 45 45 45 218 218 218 213 213 213 93
 174 174 174 174 120 120 120 120 180 180 180 180 180 180 167 167 167 45 45 123
 123 123 213 213 213 213 213 213 93 174 174 174 174 58 58 58 58 58 180 180
 180 180 180 2 2 2 123 123 123 123 123 123 213 213 213 213 213 174 174 174
 174 174 58 58 58 58 58 58 220 220 220 220 2 2 2 2 123 123 123 123
 78 78 213 213 213 213 174 174 174 174 174 174 58 58 58 58 220 220 220 220
 220 2 2 2 2 2 123 123 78 78 78 78 213 110 110 110 174 174 174 174
 174 58 58 58 220 220 220 220 220 220 2 2 2 2 2 2 2 78 78 78
 78 110 110 110 110 200 200 200 200 200 58 58 220 220 220 220 220 220 220 2
 2 2 2 2 2 2 78 78 78 8 110 110 110 110 110 200 200 200 200 200
 175 175 175 175 175 220 220 220 2 2 2 2 2 2 2 78 8 8 8 8
 110 110 110 200 200 200 200 200 200 175 175 175 175 175 175 175 175 175 2 2
 2 2 2 2 78 8 8 8 8 110 110 81 81 81 81 200 200 175 175 175
 175 175 175 175 175 175 175 216 216 2 2 2 2 78 8 8 8 110 110 110
 81 81 81 81 81 81 175 175 175 175 175 175 175 175 175 175 137 137 26 26
 26 26 78 8 8 8 110 110 81 81 81 81 81 81 81 172 175 175 175 175
 175 175 175 175 137 137 137 137 26 50 50 50 148 148 8 110 81 81 81 81
 81 81 81 81 115 115 115 115 115 175 175 175 137 137 137 137 137 50 50 50
 50 148 148 148 148 225 225 225 225 225 225 225 225 115 115 115 115 115 115 115
 137 137 137 137 137 137 50 50 50 50 148 148 148 148 148 225 184 184 184 225
 225 225 115 115 115 115 115 115 115 23 137 137 137 137 137 50 50 50 50 148
 148 148 148 148 225 184 184 184 184 184 184 115 115 115 115 115 115 23 23 23
 137 137 137 137 50 50 50 148 148 148 148 148 148 184 184 184 184 184 184 184
 115 115 115 115 115 115 23 23 23 23 137 137 137 50 50 50 148 148 148 148
 148 148 184 184 184 184 184 184 197 197 115 115 115 115 23 23 23 23 23 23
 165 165 165 50 50 148 148 148 148 148 148 184 184 111 184 184 197 197 197 197
 143 115 115 23 23 23 23 23 165 165 165 165 165 208 207 207 207 207 207 207
 184 195 197 197 197 197 197 197 197 197 143 173 23 23 23 23 165 165 39 39
 39 208 208 208 207 207 207 207 207 207 195 55 55 197 197 197 197 143 197 197
 173 173 173 173 23 39 39 39 39 39 208 208 208 207 207 95 207 207 207 55
 55 55 55 143 143 197 100 100 197 173 173 173 173 1 1 1 1 1 1 208
 132 132 132 207 207 207 207 207 55 55 55 55 55 100 100 100 100 100 100 173
 173 173 1 1 1 1 1 1 132 132 132 132 132 207 207 207 207 55 55 55
 55 55 100 100 100 100 100 100 173 173 1 1 1 1 1 1 1 132 132 132
 132 132 132 132 132 76 76 55 55 55 55 100 100 100 100 100 100 180 180 1
 1 1 1 1 1 1 1 132 132 132 132 132 132 102 76 76 76 55 55 55
 212 212 212 212 212 180 180 180 180 1 1 1 1 1 1 45 65 65 65 65
 102 102 102 76 76 76 76 76 55 212 212 212 212 180 180 180 180 180 180 167
 167 45 45 45 45 45 65 65 102 102 102 102 76 76 76 76 76 120 120 120
 120 120 180 180 180 180 180 180 167 167 45 45 45 45 45 45 65 218 102 102
 102 102 76 76 76 76 120 120 120 120 120 180 180 180 180 180 180 167 167 45
 45 45 45 45 45 218 218 218 102 102 93 93 93 76 120 120 120 120 120 120
 180 180 180 180 180 180 167 167 45 45 45 45 45 45 218 218 213 213 93 93
 93 93 190 190 190 58 58 58 120 180 180 180 180 180 180 180 45 45 45 45
 123 123 123 213 213 213 213 93 93 93 190 190 190 190 58 58 58 58 58 180
 180 180 180 180 2 2 2 123 123 123 123 123 213 213 213 213 93 93 190 190
 190 190 190 58 58 58 58 58 58 220 220 220 220 2 2 2 2 123 123 123
 123 78 78 213 213 93 93 190 190 190 190 190 58 58 58 58 58 220 220 220
 220 220 2 2 2 2 2 2 123 78 78 78 78 213 110 110 110 190 190 190
 190 58 58 58 58 220 220 220 220 220 220 2 2 2 2 2 2 2 78 78
 78 78 110 110 110 110 110 200 200 200 200 58 58 220 220 220 220 220 220 220
 220 2 2 2 2 2 2 78 78 78 8 110 110 110 110 110 200 200 200 200
 58 220 220 220 220 220 220 220 220 220 2 2 2 2 2 2 78 8 8 8
 8 110 110 110 110 200 200 200 200 175 175 175 175 175 175 175 175 175 175 2
 2 2 2 2 2 78 8 8 8 110 110 110 81 81 81 81 200 172 172 175
 175 175 175 175 175 175 175 175 216 216 216 216 2 2 78 8 8 8 110 110
 110 81 81 81 81 81 172 172 175 175 175 175 175 175 175 175 216 216 216 216
 216 216 2 78 8 8 8 110 110 81 81 81 81 81 81 172 172 175 175 175
 175 175 175 175 175 137 216 216 216 137 50 50 50 148 148 8 110 81 81 81
 81 81 81 81 172 172 115 115 115 115 175 175 175 137 137 137 137 137 137 137
 50 50 148 148 148 148 81 81 81 81 81 81 81 172 115 115 115 115 115 115
 175 137 137 137 137 137 137 137 137 50 50 148 148 148 148 148 225 184 184 184
 184 184 184 115 115 115 115 115 115 115 23 137 137 137 137 137 137 137 50 148
 148 148 148 148 148 184 184 184 184 184 184 184 115 115 115 115 115 115 23 23
 23 137 137 137 137 137 137 50 148 148 148 148 148 148 184 184 184 184 184 184
 184 115 115 115 115 115 115 23 23 23 23 137 137 137 137 137 148 148 148 148
 148 148 148 184 184 184 184 184 184 115 115 115 115 115 115 23 23 23 23 23
 23 137 39 39 208 208 148 148 148 148 148 148 184 184 111 184 184 197 197 197
 197 197 115 115 23 23 23 23 23 39 39 39 39 208 208 208 207 207 207 207
 207 184 195 195 179 179 179 179 179 179 179 179 179 23 23 23 23 39 39 39
 39 84 208 208 208 207 207 207 207 207 207 195 195 55 179 179 179 179 179 179
 179 179 23 23 23 23 39 39 39 39 84 208 208 208 132 207 207 207 207 207
 55 55 55 55 143 143 143 100 179 179 179 173 173 173 1 1 1 1 1 84
 208 208 132 132 132 207 207 207 207 55 55 55 55 55 100 100 100 100 100 100
 173 173 1 1 1 1 1 1 1 132 132 132 132 132 132 132 132 132 55 55
 55 55 55 55 100 100 100 100 100 100 100 1 1 1 1 1 1 1 132 132
 132 132 132 132 132 132 132 55 55 55 55 55 55 212 212 212 212 212 180 180
 1 1 1 1 1 1 1 132 132 60 60 60 132 132 132 132 55 55 55 55
 55 212 212 212 212 212 212 180 180 180 1 1 1 1 1 45 45 65 65 65
 65 102 102 102 102 76 55 55 55 55 212 212 212 212 212 180 180 180 180 180
 167 45 45 45 45 45 45 65 65 65 102 102 102 102 76 76 55 55 55 212
 212 212 212 180 180 180 180 180 180 167 45 45 45 45 45 45 65 65 102 102
 102 102 102 93 226 226 55 120 120 120 120 120 180 180 180 180 180 180 167 45
 45 45 45 45 45 65 65 102 102 102 102 93 93 93 104 104 104 120 120 120
 120 180 180 180 180 180 180 180 45 45 45 45 45 45 45 213 213 213 93 93
 93 93 104 104 104 104 104 58 58 120 180 180 180 180 180 180 180 45 45 45
 45 123 123 123 213 213 213 93 93 93 93 104 104 104 190 190 58 58 58 180
 180 180 180 180 180 2 2 2 123 123 123 123 123 213 213 213 93 93 93 93
 190 190 190 190 190 58 58 58 58 220 220 220 220 220 2 2 2 2 123 123
 123 123 78 78 213 93 93 93 190 190 190 190 190 190 58 58 58 220 220 220
 220 220 220 2 2 2 2 2 2 123 78 78 78 78 93 93 93 110 190 190
 190 190 190 58 58 58 220 220 220 220 220 220 220 2 2 2 2 2 2 78
 78 78 78 110 110 110 110 110 190 190 190 190 58 58 220 220 220 220 220 220
 220 220 2 2 2 2 2 2 78 78 78 8 8 110 110 110 110 200 200 200
 200 220 220 220 220 220 220 220 220 220 220 2 2 2 2 2 2 78 78 8
 8 8 110 110 110 81 81 81 172 172 172 220 220 220 220 220 220 220 220 220
 216 2 2 2 2 2 78 8 8 8 8 110 110 81 81 81 81 172 172 172
 175 175 175 175 175 175 175 175 216 216 216 216 216 2 2 78 8 8 8 110
 110 110 81 81 81 81 172 172 172 172 175 175 175 175 175 175 175 216 216 216
 216 216 216 216 216 8 8 8 110 110 81 81 81 81 81 172 172 172 172 175
 175 175 175 175 175 175 216 216 216 216 216 216 216 216 148 148 8 110 81 81
 81 81 81 81 172 172 172 172 115 115 175 175 175 175 137 216 216 137 137 137
 137 137 112 148 148 148 148 81 81 81 81 81 81 172 172 90 115 115 115 115
 115 175 137 137 137 137 137 137 137 137 137 112 148 148 148 148 148 81 184 184
 184 184 184 90 90 115 115 115 115 115 115 23 137 137 137 137 137 137 137 137
 148 148 148 148 148 148 184 184 184 184 184 184 90 90 115 115 115 115 115 23
 23 23 137 137 137 137 137 137 137 148 148 148 148 148 148 184 184 184 184 184
 184 90 90 115 115 115 115 115 23 23 23 23 109 109 109 137 137 148 148 148
 148 148 148 148 184 184 184 184 184 184 90 115 115 115 115 115 23 23 23 23
 23 109 109 109 109 208 208 148 148 148 148 148 148 184 184 184 184 184 179 179
 179 179 179 115 115 23 23 23 23 23 39 39 39 39 208 208 208 207 207 207
 207 207 184 195 195 195 179 179 179 179 179 179 179 179 23 23 23 119 119 109
 109 84 84 208 208 208 208 207 207 207 207 207 195 195 195 179 179 179 179 179
 179 179 179 179 23 23 119 39 39 39 84 84 84 208 208 132 132 207 207 207
 207 195 195 55 55 179 179 179 179 179 179 179 179 173 1 1 1 1 1 84
 84 208 208 132 132 132 132 132 132 132 55 55 55 55 55 100 100 100 179 179
 179 179 155 1 1 1 1 1 1 1 132 132 132 132 132 132 132 132 132 55
 55 55 55 55 55 100 100 100 100 100 155 155 107 1 1 1 1 1 1 132
 132 132 132 132 132 132 132 132 55 55 55 55 55 55 212 212 212 212 155 155
 155 155 107 1 1 1 1 1 132 60 60 60 60 60 132 102 102 55 55 55
 55 55 212 212 212 212 212 155 155 155 155 155 107 1 1 1 45 65 65 65
 65 65 102 102 102 102 55 55 55 55 55 212 212 212 212 212 155 155 155 155
 155 107 107 45 45 45 45 65 65 65 65 102 102 102 102 226 226 55 55 55
 212 212 212 212 212 180 180 180 180 180 180 45 45 45 45 45 65 65 65 65
 102 102 102 102 226 226 226 86 86 212 212 212 34 180 180 180 180 180 180 180
 45 45 45 45 45 45 65 65 102 102 102 102 93 93 226 86 86 86 86 34
 34 34 180 180 180 180 180 180 245 245 45 45 45 45 45 65 213 102 102 93
 93 93 93 86 86 86 86 86 34 34 34 180 180 180 180 180 180 245 245 245
 45 45 123 123 123 213 213 93 93 93 93 93 104 104 190 190 190 133 133 133
 133 180 180 180 180 247 245 245 245 123 123 123 123 123 213 213 93 93 93 93
 93 190 190 104 190 190 133 133 133 220 220 220 220 220 220 2 2 2 2 2
 123 123 123 78 78 93 93 93 93 190 190 190 190 104 104 133 133 133 220 220
 220 220 220 220 2 2 2 2 2 2 2 78 78 78 78 93 93 93 190 190
 190 190 104 104 133 133 220 220 220 220 220 220 220 220 2 2 2 2 2 2
 78 78 78 78 110 110 110 110 57 190 190 104 104 133 220 220 220 220 220 220
 220 220 220 2 2 2 2 2 2 78 78 78 8 8 110 110 57 57 57 57
 57 172 220 220 220 220 220 220 220 220 220 220 246 2 2 2 2 2 78 78
 8 8 8 110 110 57 57 57 57 172 172 172 220 220 205 205 220 220 220 220
 246 246 246 246 2 2 2 78 8 8 8 8 110 110 81 81 81 172 172 172
 172 172 205 205 205 205 205 220 220 216 216 216 216 216 216 216 78 8 8 8
 110 110 110 81 81 81 172 172 172 172 172 205 205 205 205 175 175 175 216 216
 216 216 216 216 216 216 233 233 8 110 110 81 81 81 81 172 172 172 172 172
 172 175 175 175 175 175 216 216 216 216 216 216 216 216 216 233 233 233 233 233
 81 81 81 81 172 172 172 172 172 90 90 175 175 175 175 216 216 216 216 216
 216 216 216 112 233 233 233 233 233 81 81 81 81 172 172 172 90 90 90 90
 115 115 175 137 216 216 137 137 137 137 137 112 112 112 233 233 233 233 233 184
 184 184 184 90 90 90 90 90 115 115 115 115 23 137 137 137 137 137 137 137
 112 112 112 89 89 89 89 184 184 184 184 184 90 90 90 90 90 115 115 115
 23 23 119 119 109 109 109 109 109 112 112 112 89 89 89 89 184 184 184 184
 184 90 90 90 90 115 115 115 115 23 23 119 119 109 109 109 109 109 112 112
 112 89 89 89 89 184 184 184 184 184 90 90 90 90 115 115 115 23 23 23
 119 119 109 109 109 109 109 208 112 112 89 89 89 89 184 184 184 184 179 179
 179 179 179 179 115 115 23 23 23 119 119 109 109 109 109 208 208 208 208 207
 207 207 207 184 195 195 195 195 179 179 179 179 179 179 179 179 119 119 119 119
 109 109 109 84 208 208 208 208 207 207 207 207 195 195 195 195 195 179 179 179
 179 179 179 179 179 119 119 119 119 109 109 84 84 208 208 208 132 132 132 132
 132 195 195 195 195 55 179 179 179 179 179 179 179 179 179 119 119 1 1 1
 84 84 208 208 132 132 132 132 132 132 195 195 55 55 55 55 179 179 179 179
 179 179 155 155 107 1 1 1 1 1 1 132 132 132 132 132 132 132 132 195
 55 55 55 55 55 55 100 100 100 100 155 155 155 107 107 107 1 1 1 132
 132 132 132 132 132 132 132 132 132 55 55 55 55 55 55 212 212 212 212 155
 155 155 155 107 107 107 1 41 41 132 132 60 60 60 60 60 102 102 55 55
 55 55 55 212 212 212 212 212 155 155 155 155 155 107 107 107 41 41 41 65
 65 65 65 102 102 102 102 226 226 55 55 55 212 212 212 212 212 155 155 155
 155 155 107 107 107 117 45 45 65 65 65 65 102 102 102 102 226 226 226 226
 212 212 212 34 34 34 155 155 155 155 155 107 107 117 117 117 117 65 65 65
 65 102 102 102 102 226 226 226 86 86 34 34 34 34 34 155 155 155 155 16
 245 245 117 117 117 117 117 65 65 102 102 102 102 93 93 226 86 86 86 86
 34 34 34 34 180 180 180 180 16 245 245 245 245 117 117 117 129 129 129 129
 93 93 93 93 86 86 86 86 86 34 34 34 34 180 180 180 180 16 245 245
 245 245 245 123 123 129 129 129 129 93 93 93 93 190 190 190 190 190 133 133
 133 133 133 220 220 247 247 245 245 245 245 245 123 123 123 129 129 129 93 93
 93 93 190 190 190 190 190 133 133 133 133 220 220 220 220 247 245 245 245 245
 2 123 123 123 129 129 129 93 93 93 190 190 190 104 104 104 133 133 133 220
 220 220 220 220 220 220 2 2 2 2 2 2 78 78 78 129 93 93 93 57
 57 104 104 104 104 133 133 133 220 220 220 220 220 220 220 2 2 2 2 2
 2 78 78 78 78 110 110 57 57 57 57 57 104 104 133 133 220 220 220 220
 220 220 220 220 246 2 2 2 2 2 78 78 78 8 8 110 57 57 57 57
 57 57 172 172 220 220 220 220 220 220 220 220 246 246 246 246 2 2 2 78
 78 8 8 8 110 57 57 57 57 57 172 172 172 205 205 205 205 205 220 220
 220 246 246 246 246 246 246 2 114 8 8 8 8 110 110 57 81 57 172 172
 172 172 172 205 205 205 205 205 220 220 246 246 246 246 246 246 246 114 114 8
 8 186 186 186 81 81 81 172 172 172 172 172 205 205 205 205 205 220 220 216
 216 216 216 216 216 216 114 233 233 233 233 186 186 81 81 81 172 172 172 172
 172 172 205 205 205 205 175 216 216 216 216 216 216 216 216 233 233 233 233 233
 233 233 81 81 81 172 172 172 172 90 90 90 90 205 205 175 216 216 216 216
 216 216 216 216 233 233 233 233 233 233 233 81 81 51 172 172 172 90 90 90
 90 90 90 90 216 216 216 216 216 216 216 216 112 112 112 233 233 233 233 233
 184 184 184 90 90 90 90 90 90 90 90 90 90 119 109 109 109 109 109 109
 112 112 112 112 233 233 233 233 233 184 184 184 90 90 90 90 90 90 90 90
 90 23 119 119 119 109 109 109 109 109 112 112 112 112 89 89 89 89 184 184
 184 90 90 90 90 90 90 90 90 90 23 119 119 119 109 109 109 109 109 112
 112 112 112 89 89 89 89 184 184 184 90 90 90 90 90 90 90 90 90 23
 119 119 119 109 109 109 109 109 112 112 112 112 89 89 89 89 195 195 195 195
 147 179 179 179 179 90 90 23 23 119 119 119 109 109 109 109 109 208 208 112
 112 89 89 89 195 195 195 195 195 147 147 147 179 179 140 140 140 119 119 119
 119 109 109 109 109 109 208 208 161 161 161 161 195 195 195 195 195 195 147 147
 147 179 179 140 140 140 119 119 119 119 109 109 109 84 208 208 132 132 132 132
 132 195 195 195 195 195 195 147 147 147 179 179 140 140 140 221 107 107 107 109
 109 84 84 208 132 132 132 132 132 132 195 195 195 195 195 195 147 147 147 179
 179 140 140 221 107 107 107 107 107 1 1 84 132 132 132 132 132 132 132 195
 195 195 55 55 55 222 222 222 222 222 155 155 155 107 107 107 107 107 107 41
 41 132 132 132 132 132 132 132 132 195 55 55 55 55 222 222 222 212 212 155
 155 155 155 107 107 107 107 107 41 41 41 132 132 132 60 60 60 102 195 55
 55 55 55 222 222 212 212 212 155 155 155 155 155 107 107 107 107 41 41 41
 41 65 65 65 102 102 102 102 226 226 226 96 96 34 34 34 212 155 155 155
 155 155 107 107 107 107 117 41 41 41 65 65 65 102 102 102 102 226 226 226
 96 96 34 34 34 34 34 155 155 155 155 16 107 107 117 117 117 117 117 65
 65 65 102 102 102 102 226 226 226 86 86 34 34 34 34 34 155 155 155 155
 16 16 245 117 117 117 117 117 117 65 129 129 102 102 93 226 226 86 86 86
 34 34 34 34 34 155 155 155 16 16 245 245 245 245 117 117 117 117 129 129
 129 129 93 93 93 86 86 86 86 86 34 34 34 34 34 247 247 247 16 245
 245 245 245 245 117 117 129 129 129 129 129 93 93 93 86 86 86 86 86 133
 133 133 133 133 247 247 247 247 245 245 245 245 245 117 117 129 129 129 129 129
 166 93 93 190 190 190 190 133 133 133 133 133 133 247 247 247 247 245 245 245
 245 245 123 123 166 166 166 166 166 166 93 190 190 190 190 190 133 133 133 133
 133 220 220 220 247 247 247 245 245 245 2 2 2 166 166 166 166 166 166 166
 57 57 57 104 104 133 133 133 133 220 220 220 220 220 220 220 224 224 224 2
 2 2 78 166 166 166 166 166 57 57 57 57 57 57 133 133 133 220 220 220
 220 220 220 220 224 224 224 224 224 2 204 204 118 118 118 118 57 57 57 57
 57 57 57 151 151 220 220 220 220 220 220 220 220 224 224 224 224 224 224 204
 118 118 118 118 118 118 57 57 57 57 57 151 151 151 151 205 205 205 205 220
 220 220 246 246 246 246 246 246 114 114 114 118 118 186 186 186 145 145 145 172
 172 172 151 151 205 205 205 205 205 220 220 246 246 246 246 246 246 114 114 114
 114 186 186 186 186 145 145 145 172 172 172 151 151 151 205 205 205 205 220 71
 246 246 246 246 246 246 114 114 114 233 186 186 186 186 145 145 145 172 172 172
 172 151 151 205 205 205 205 71 71 71 216 216 216 216 216 216 233 233 233 233
 233 233 14 14 51 51 172 172 172 172 90 90 90 90 205 205 71 71 71 71
 216 216 216 216 233 233 233 233 233 233 233 14 14 51 51 51 172 90 90 90
 90 90 90 90 90 71 71 71 71 71 216 216 112 112 112 112 233 233 233 233
 14 14 51 51 51 90 90 90 90 90 90 90 90 119 119 109 109 109 109 109
 109 112 112 112 112 233 233 233 233 14 14 184 51 51 90 90 90 90 90 90
 90 90 119 119 119 119 109 109 109 109 109 112 112 112 112 233 233 233 14 184
 184 184 90 90 90 90 90 90 90 90 90 119 119 119 119 109 109 109 109 109
 112 112 112 112 112 89 89 89 195 195 195 195 90 90 90 90 90 90 90 90
 183 183 183 119 109 109 109 109 109 112 112 112 112 161 89 89 195 195 195 195
 195 147 147 147 90 90 90 90 183 183 183 119 119 109 109 109 109 109 208 161
 161 161 161 161 161 195 195 195 195 195 147 147 147 147 140 140 140 140 140 119
 119 119 109 109 109 109 109 208 161 161 161 161 161 161 195 195 195 195 195 147
 147 147 147 140 140 140 140 140 119 119 119 109 109 109 109 208 208 132 161 161
 161 161 195 195 195 195 195 195 147 147 147 147 140 140 140 140 221 107 107 107
 109 109 109 84 208 132 132 132 132 132 132 195 195 195 195 195 195 147 147 147
 147 140 140 140 221 221 107 107 107 107 107 41 41 41 132 132 132 132 132 132
 195 195 195 195 195 222 222 222 222 222 222 140 155 221 107 107 107 107 107 107
 41 41 41 41 132 132 132 132 132 195 195 195 195 222 222 222 222 222 222 222
 155 155 155 155 107 107 107 107 107 41 41 41 41 41 132 60 60 4 176 195
 226 55 96 222 222 222 222 222 212 155 155 155 155 107 107 107 107 107 41 41
 41 41 41 65 65 4 102 102 195 226 226 96 96 96 222 34 34 34 155 155
 155 155 155 107 107 107 41 41 41 41 41 41 65 65 102 102 102 102 226 226
 96 96 96 34 34 34 34 155 155 155 155 16 16 16 16 117 117 117 117 117
 41 65 65 102 102 102 102 226 226 96 96 96 34 34 34 34 34 155 155 155
 16 16 16 245 117 117 117 117 117 117 129 129 129 166 166 166 226 226 86 86
 86 34 34 34 34 34 155 155 16 16 16 16 245 245 245 117 117 117 117 129
 129 129 166 166 166 93 86 86 86 86 86 34 34 34 34 34 247 247 247 16
 245 245 245 245 245 117 117 117 166 129 166 166 166 166 86 86 86 86 86 86
 133 133 133 133 133 247 247 247 247 245 245 245 245 245 117 117 166 166 166 166
 166 166 166 86 86 86 86 86 133 133 133 133 133 133 247 247 247 247 247 245
 245 245 245 117 204 166 166 166 166 166 166 166 57 190 190 190 190 133 133 133
 133 133 220 247 247 247 247 247 245 245 245 245 204 204 166 166 166 166 166 166
 166 57 57 57 57 198 133 133 133 133 220 220 220 220 247 247 247 224 224 224
 224 204 204 204 166 166 166 166 166 166 57 57 57 57 198 133 133 133 220 220
 220 220 220 220 220 224 224 224 224 224 204 204 204 118 118 118 118 118 57 57
 57 57 57 57 151 151 80 220 220 220 220 220 220 220 224 224 224 224 224 204
 204 118 118 118 118 118 118 186 145 145 145 145 151 151 151 151 80 205 205 220
 220 220 220 224 224 224 224 224 224 114 114 114 118 118 118 186 186 145 145 145
 145 151 151 151 151 80 205 205 205 220 220 246 246 246 246 246 246 246 114 114
 114 114 186 186 186 186 145 145 145 151 151 151 151 151 151 80 205 205 205 71
 71 71 246 246 246 246 246 114 114 114 114 186 186 186 186 145 145 145 151 151
 151 151 151 151 80 205 205 205 71 71 71 71 71 71 71 71 114 114 233 233
 233 233 14 14 14 51 51 51 51 151 151 151 90 90 90 90 71 71 71 71
 71 71 71 71 71 71 233 233 233 233 233 14 14 14 51 51 51 51 90 90
 90 90 90 90 90 90 71 71 71 71 71 71 71 71 112 112 233 233 233 233
 14 14 14 51 51 51 51 90 90 90 90 90 90 90 90 71 71 71 71 109
 109 109 112 112 112 112 233 233 14 14 14 14 51 51 51 90 90 90 90 90
 90 90 90 119 119 119 119 109 109 109 109 109 112 112 112 112 233 233 14 14
 14 195 51 51 90 90 90 90 90 90 90 90 119 119 119 119 109 109 109 109
 109 112 112 112 112 161 161 14 14 195 195 195 195 90 90 90 90 90 90 90
 90 119 119 119 119 109 109 109 109 109 112 112 161 161 161 161 161 195 195 195
 195 195 147 147 147 90 90 140 140 140 119 119 119 119 109 109 109 109 109 109
 161 161 161 161 161 161 195 195 195 195 195 147 147 147 147 140 140 140 140 140
 119 119 119 109 109 109 109 109 161 161 161 161 161 161 195 195 195 195 195 195
 147 147 147 147 140 140 140 140 221 221 119 119 109 109 109 109 109 161 161 161
 161 161 161 195 195 195 195 195 195 147 147 147 147 140 140 140 221 221 221 221
 107 107 109 109 41 41 132 132 201 201 161 161 195 195 195 195 195 195 147 147
 147 147 140 140 221 221 221 107 107 107 107 107 41 41 41 41 201 201 201 201
 201 195 195 195 195 195 222 222 222 222 222 140 221 221 221 221 107 107 107 107
 107 41 41 41 41 201 201 201 201 201 195 195 195 195 163 222 222 222 222 222
 222 242 242 242 242 107 107 107 107 107 41 41 41 41 201 201 201 4 4 176
 176 163 163 163 163 222 222 222 222 222 242 242 242 242 107 107 107 107 41 41
 41 41 41 41 201 4 4 4 4 176 163 163 163 163 163 222 222 222 34 155
 155 155 155 16 16 107 107 41 41 41 41 41 41 201 4 4 4 4 4 226
 96 96 96 96 96 34 34 34 155 155 155 16 16 16 16 16 117 117 117 117
 41 41 41 4 4 4 4 4 226 96 96 96 96 96 34 34 34 34 155 155
 16 16 16 16 16 117 117 117 117 117 117 166 166 166 166 166 166 226 96 96
 96 96 96 34 34 34 34 155 16 16 16 16 16 245 245 117 117 117 117 117
 166 166 166 166 166 166 93 86 86 86 86 86 34 34 34 34 247 247 247 247
 16 16 245 245 245 117 117 117 117 166 166 166 166 166 166 86 86 86 86 86
 86 133 133 133 133 247 247 247 247 247 247 245 245 245 245 117 117 166 166 166
 166 166 166 166 86 86 86 86 86 133 133 133 133 133 247 247 247 247 247 247
 245 245 245 245 117 204 166 166 166 166 166 166 166 145 145 190 198 198 133 133
 133 133 133 247 247 247 247 247 247 245 245 245 204 204 204 204 166 166 166 166
 166 166 145 145 145 198 198 133 133 133 133 133 220 247 247 247 247 247 224 224
 224 204 204 204 204 204 118 118 118 118 118 145 145 145 198 198 198 133 80 80
 80 220 220 220 220 247 224 224 224 224 224 204 204 204 228 118 118 118 118 118
 145 145 145 198 198 198 80 80 80 80 80 220 220 220 224 224 224 224 224 224
 204 204 228 118 118 118 118 118 186 145 145 145 145 151 151 151 80 80 80 80
 220 220 220 224 224 224 224 224 224 204 204 114 114 118 118 186 186 186 145 145
 145 145 151 151 151 151 80 80 80 80 220 220 71 71 224 224 224 224 204 114
 114 114 114 186 186 186 186 145 145 145 145 151 151 151 151 80 80 80 80 80
 71 71 71 71 71 71 71 71 114 114 114 114 186 186 186 186 145 145 145 51
 151 151 151 151 80 80 80 80 80 71 71 71 71 71 71 71 71 114 114 114
 233 233 186 14 14 14 51 51 51 51 151 151 151 90 90 80 80 71 71 71
 71 71 71 71 71 71 146 146 233 233 233 14 14 14 14 51 51 51 51 235
 90 90 90 90 90 90 71 71 71 71 71 71 71 71 146 146 146 233 233 233
 14 14 14 14 51 51 51 51 90 90 90 90 90 90 90 90 71 71 71 71
 71 69 69 146 146 146 112 233 14 14 14 14 14 51 51 51 51 90 90 90
 90 90 90 90 90 119 119 119 109 109 109 69 146 146 112 112 161 161 14 14
 14 195 195 51 51 90 90 90 90 90 90 90 90 119 119 119 119 109 109 109
 109 146 146 112 161 161 161 161 161 14 195 195 195 195 90 90 90 90 90 90
 90 90 119 119 119 119 109 109 109 109 109 146 161 161 161 161 161 161 161 195
 195 195 195 147 147 147 147 140 140 140 140 119 119 119 119 109 109 109 109 109
 161 161 161 161 161 161 161 195 195 195 195 195 147 147 147 147 140 140 140 140
 221 221 119 7 7 7 109 109 109 161 161 161 161 161 161 161 195 195 195 195
 195 147 147 147 147 140 140 140 221 221 221 221 7 7 7 109 109 109 161 161
 161 161 161 161 195 195 195 195 195 195 147 147 147 147 140 140 221 221 221 221
 221 107 107 107 41 41 41 201 201 201 201 201 161 195 195 195 195 195 195 147
 147 147 147 140 221 221 221 221 221 107 107 107 107 41 41 41 201 201 201 201
 201 201 195 195 195 195 195 222 222 222 222 222 221 221 221 221 221 107 107 107
 107 107 41 41 41 201 201 201 201 201 201 176 195 176 163 163 163 222 222 222
 222 222 242 242 242 242 242 107 107 107 107 41 41 41 41 201 201 201 4 4
 176 176 163 163 163 163 163 222 222 222 242 242 242 242 242 242 107 107 107 41
 41 41 41 41 41 201 4 4 4 176 176 163 163 163 163 163 163 222 222 239
 242 242 242 242 16 16 16 107 41 41 41 41 41 41 4 4 4 4 4 176
 163 163 163 163 96 163 34 34 34 239 155 16 16 16 16 16 16 41 41 41
 41 41 41 41 4 4 4 4 4 96 96 96 96 96 96 34 34 239 239 239
 16 16 16 16 16 16 117 117 117 117 117 41 41 4 4 166 166 166 96 96
 96 96 96 96 34 34 34 239 16 16 16 16 16 16 16 245 117 117 117 117
 117 166 166 166 166 166 166 96 96 96 96 96 96 34 34 34 239 16 16 16
 16 16 16 245 245 245 117 117 117 117 166 166 166 166 166 166 86 86 86 86
 86 86 133 133 133 133 247 247 247 247 247 16 245 245 245 117 117 117 166 166
 166 166 166 166 166 31 31 86 86 86 133 133 133 133 133 247 247 247 247 247
 247 245 245 245 117 117 204 215 215 215 215 215 215 215 145 145 198 198 198 133
 133 133 133 133 247 247 247 247 247 247 247 224 224 204 204 204 204 215 215 215
 215 215 215 145 145 198 198 198 198 133 133 80 80 80 247 247 247 247 247 224
 224 224 204 204 204 204 204 118 118 118 118 118 145 145 198 198 198 198 80 80
 80 80 80 220 220 247 247 224 224 224 224 204 204 204 228 228 118 118 118 118
 118 145 145 198 198 198 198 80 80 80 80 80 80 220 220 224 224 224 224 224
 224 204 204 228 228 118 118 118 186 186 145 145 145 198 198 198 80 80 80 80
 80 80 80 220 224 224 224 224 224 224 204 204 228 114 118 118 186 186 186 145
 145 145 145 151 151 151 80 80 80 80 80 80 71 71 71 224 224 224 224 204
 114 114 114 114 186 186 186 186 145 145 145 145 151 151 151 80 80 80 80 80
 80 71 71 71 71 71 71 71 71 114 114 114 114 186 186 186 186 145 145 145
 51 151 151 151 126 80 80 80 80 80 71 71 71 71 71 71 71 71 114 114
 114 233 186 186 186 14 14 181 51 51 235 235 235 126 80 80 80 80 80 71
 71 71 71 71 71 71 71 146 146 233 233 14 14 14 14 14 51 51 51 235
 235 235 90 90 90 80 80 71 71 71 71 71 71 69 69 146 146 146 146 233
 14 14 14 14 14 51 51 51 235 235 235 90 90 90 90 90 90 71 71 71
 71 69 69 69 146 146 146 146 233 14 14 14 14 14 51 51 51 235 235 90
 90 90 90 90 90 90 106 106 7 7 69 69 69 146 146 146 146 161 161 14
 14 14 14 195 51 51 235 90 90 90 90 90 90 90 119 119 7 7 7 7
 69 146 146 146 146 161 161 161 161 161 14 195 195 195 195 147 90 90 90 90
 90 90 90 119 119 7 7 7 7 109 109 146 146 161 161 161 161 161 161 161
 195 195 195 195 147 147 147 147 140 140 140 140 119 119 7 7 7 7 109 109
 146 146 161 161 161 161 161 161 195 195 195 195 195 147 147 147 147 140 140 140
 221 187 187 187 7 7 7 7 109 161 161 161 161 161 161 161 161 195 195 195
 195 195 147 147 147 147 140 140 221 221 221 187 187 187 7 7 7 109 161 161
 161 161 161 161 161 195 195 195 195 195 195 147 147 147 105 105 221 221 221 221
 221 187 187 107 107 41 41 201 201 201 40 201 201 201 195 195 195 195 195 195
 147 147 105 105 105 221 221 221 221 221 107 107 107 107 41 41 201 201 201 201
 201 201 176 176 176 176 195 195 222 222 222 105 105 105 221 221 221 221 221 107
 107 107 107 41 41 41 201 201 201 201 201 176 176 176 176 163 163 163 163 222
 222 105 105 242 242 242 242 242 107 107 107 41 41 41 41 201 201 201 201 4
 176 176 176 176 163 163 163 163 163 222 105 242 242 242 242 242 242 16 107 107
 41 41 41 41 41 201 201 4 4 4 176 176 163 163 163 163 163 163 163 239
 239 239 242 242 242 16 16 16 16 41 41 41 41 41 41 4 4 4 4 4
 176 163 163 163 163 163 163 163 239 239 239 239 239 16 16 16 16 16 41 41
 41 41 41 41 4 4 4 4 4 176 163 163 163 163 96 96 239 239 239 239
 239 239 16 16 16 16 16 117 117 117 117 41 41 41 4 4 4 4 4 157