# vtk DataFile Version 2.0
Data set from ImportExport Version 6.5.171.b0b162591
ASCII

DATASET RECTILINEAR_GRID
DIMENSIONS 30 30 30
X_COORDINATES 30 float
-1.250000 1.250000 3.750000 6.250000 8.750000 11.250000 13.750000 16.250000 18.750000 21.250000 23.750000 26.250000 28.750000 31.250000 33.750000 36.250000 38.750000 41.250000 43.750000 46.250000 48.750000 
51.250000 53.750000 56.250000 58.750000 61.250000 63.750000 66.250000 68.750000 71.250000 
Y_COORDINATES 30 float
-1.250000 1.250000 3.750000 6.250000 8.750000 11.250000 13.750000 16.250000 18.750000 21.250000 23.750000 26.250000 28.750000 31.250000 33.750000 36.250000 38.750000 41.250000 43.750000 46.250000 48.750000 
51.250000 53.750000 56.250000 58.750000 61.250000 63.750000 66.250000 68.750000 71.250000 
Z_COORDINATES 30 float
-1.250000 1.250000 3.750000 6.250000 8.750000 11.250000 13.750000 16.250000 18.750000 21.250000 23.750000 26.250000 28.750000 31.250000 33.750000 36.250000 38.750000 41.250000 43.750000 46.250000 48.750000 
51.250000 53.750000 56.250000 58.750000 61.250000 63.750000 66.250000 68.750000 71.250000 
CELL_DATA 24389
SCALARS FeatureIds int 1
LOOKUP_TABLE default
 45 45 45 45 220 220 220 220 186 186 186 175 175 232 232 232 232 232 232 232
 232 180 180 180 180 180 180 180 180 45 45 45 45 220 220 220 220 186 186 186
 186 232 232 232 232 232 232 232 232 232 180 180 180 180 180 180 180 180 21 21
 21 21 220 220 220 220 186 186 186 214 214 232 232 232 232 232 232 232 232 180
 180 180 180 180 180 180 180 21 21 21 21 220 220 220 186 186 186 186 214 214
 232 232 232 232 232 232 138 138 180 180 180 180 180 180 180 180 27 27 27 27
 220 220 186 186 186 186 186 214 214 214 232 232 232 138 138 138 138 32 180 180
 180 180 180 180 27 27 27 27 27 27 186 186 186 186 186 186 214 214 214 232
 138 138 138 138 138 138 32 32 32 32 32 32 27 27 27 27 27 27 27 8
 186 186 186 186 186 214 214 214 138 138 138 138 138 138 138 32 32 32 32 32
 32 27 27 81 81 81 81 81 8 8 8 8 8 8 8 226 138 138 138 138
 138 138 138 138 32 32 32 32 32 32 32 27 81 81 81 81 8 8 8 8
 8 8 8 8 226 138 138 138 138 138 138 138 138 32 32 32 32 32 32 32
 81 81 81 81 81 8 8 8 8 8 8 8 8 88 88 207 207 138 138 138
 138 32 32 32 32 32 32 32 32 105 105 105 105 18 8 8 8 8 8 8
 8 8 88 88 207 207 207 217 217 217 217 53 53 53 53 53 53 105 105 105
 105 105 18 18 8 8 8 8 8 8 88 88 207 207 207 207 217 217 217 217
 53 53 53 53 53 53 105 105 105 105 18 18 18 18 8 8 8 8 8 229
 88 207 207 207 207 217 217 217 217 53 53 53 53 53 53 105 105 105 18 18
 18 18 18 18 8 177 177 177 229 229 207 207 207 207 217 244 244 244 244 53
 53 53 53 135 135 105 148 148 18 18 18 18 18 177 177 177 177 229 147 147
 207 207 207 244 244 244 244 244 53 53 49 84 84 84 148 148 148 148 18 18
 18 36 36 177 177 177 177 42 147 147 207 244 244 244 244 244 244 244 49 49
 84 84 84 148 148 148 148 148 159 159 36 36 36 177 177 42 42 12 12 97
 97 97 244 244 244 244 244 167 84 84 84 84 84 148 148 148 159 159 159 36
 36 36 36 195 42 12 12 12 12 97 97 97 244 244 244 244 167 167 167 84
 84 84 196 148 148 159 159 159 159 36 36 36 195 12 12 12 12 12 215 215
 215 215 244 244 167 167 167 167 167 84 84 196 76 76 159 159 159 159 159 159
 159 159 12 12 12 12 12 215 215 215 215 215 60 167 167 167 167 167 196 196
 196 76 76 76 76 159 159 159 159 159 159 12 12 12 12 215 215 215 215 215
 60 60 60 167 167 167 167 196 196 76 76 76 76 76 159 159 159 159 159 159
 104 104 104 12 215 215 215 215 60 60 60 60 60 167 167 167 196 196 76 76
 76 76 76 76 141 159 159 159 159 31 31 31 31 215 215 215 60 60 60 60
 60 60 167 167 183 183 183 183 76 76 76 76 76 141 159 159 175 175 31 31
 31 31 31 123 60 60 60 60 60 60 60 60 183 183 183 183 183 76 76 76
 76 76 141 159 175 175 175 175 175 168 168 168 123 227 60 60 60 60 60 60
 60 183 183 183 183 183 76 76 76 76 76 141 175 175 175 175 175 175 175 168
 168 227 227 227 60 60 60 60 60 60 183 183 183 183 183 76 76 76 76 76
 175 175 175 175 175 175 175 175 175 227 227 227 227 60 60 60 60 60 60 180
 183 183 183 192 192 192 192 192 76 175 175 175 175 175 175 175 175 232 232 227
 227 227 227 60 60 60 180 180 180 180 183 183 192 192 192 192 192 186 186 186
 186 175 175 175 175 175 232 232 232 227 227 227 60 60 180 180 180 180 180 180
 180 137 137 137 192 220 220 220 220 220 186 175 175 175 232 232 232 232 232 232
 232 232 180 180 180 180 180 180 180 180 137 137 137 137 220 220 220 220 220 220
 186 186 232 232 232 232 232 232 232 232 232 180 180 180 180 180 180 180 180 21
 137 21 137 220 220 220 220 220 186 186 186 232 232 232 232 232 232 232 232 232
 180 180 180 180 180 180 180 180 21 21 21 21 220 220 220 220 220 186 186 214
 214 232 232 232 232 232 232 138 138 180 180 180 180 180 180 180 180 27 27 27
 27 220 220 220 220 186 186 186 214 214 214 232 232 232 101 138 138 138 180 180
 180 180 180 180 180 27 27 27 27 27 27 186 186 186 186 186 186 214 214 214
 232 138 138 138 138 138 138 32 32 32 32 32 180 180 27 81 81 81 81 81
 228 228 8 8 186 186 214 214 226 138 138 138 138 138 138 138 32 32 32 32
 32 32 27 27 81 81 81 81 81 228 8 8 8 8 8 8 226 226 138 138
 138 138 138 138 138 32 32 32 32 32 32 81 81 81 81 81 81 81 8 8
 8 8 8 8 8 226 226 226 138 138 138 138 138 138 32 32 32 32 32 32
 81 81 81 81 81 81 8 8 8 8 8 8 8 226 226 226 207 207 138 138
 138 138 138 32 32 32 32 32 32 143 81 81 81 81 18 8 8 8 8 8
 8 8 226 226 207 207 207 207 207 217 217 89 89 53 53 53 53 53 105 105
 105 105 18 18 18 8 8 8 8 8 8 8 226 207 207 207 207 207 217 217
 89 53 53 53 53 53 53 105 105 18 18 18 18 18 18 8 8 8 8 8
 147 147 147 207 207 207 207 217 244 244 53 53 53 53 53 135 135 105 18 18
 18 18 18 18 18 8 8 177 42 147 147 147 147 207 207 207 244 244 244 244
 49 49 49 49 135 135 135 148 18 18 18 18 18 18 8 177 42 42 42 147
 147 147 147 207 244 244 244 244 244 49 49 49 49 135 135 135 148 148 18 18
 18 18 36 36 36 42 42 42 42 147 147 147 244 244 244 244 244 244 49 49
 49 84 84 84 84 148 148 148 148 159 159 36 36 36 195 42 42 42 42 12
 97 97 97 244 244 244 244 49 49 49 84 84 84 84 84 148 148 159 159 159
 36 36 36 195 195 42 42 12 12 97 97 97 97 244 244 244 49 167 167 167
 84 84 84 196 148 148 159 159 159 36 36 36 195 195 195 12 12 12 215 215
 215 215 215 244 244 167 167 167 167 167 84 84 196 76 76 76 76 159 159 36
 36 195 195 104 104 104 12 215 215 215 215 215 215 167 167 167 167 167 167 196
 196 196 76 76 76 76 76 159 159 159 159 159 104 104 104 104 215 215 215 215
 215 60 60 60 167 167 167 167 196 196 76 76 76 76 76 76 159 159 159 159
 104 104 104 104 104 215 215 215 215 60 60 60 60 60 167 167 167 196 196 76
 76 76 76 76 76 141 159 159 162 162 31 31 31 31 31 44 44 60 60 60
 60 60 60 223 223 183 183 183 183 76 76 76 76 76 76 159 162 162 162 31
 31 31 31 31 123 44 60 60 60 60 60 60 223 223 183 183 183 183 76 76
 76 76 76 76 162 162 175 175 175 168 168 168 168 123 123 60 60 60 60 60
 60 223 223 183 183 183 183 76 76 76 76 76 92 175 175 175 175 175 175 168
 168 168 123 123 123 60 60 60 60 60 223 223 183 183 183 183 150 150 76 150
 92 92 175 175 175 175 175 175 175 168 168 123 123 123 60 60 60 60 60 223
 180 183 183 183 192 192 192 192 192 220 220 220 175 175 175 175 175 175 232 232
 232 232 227 227 60 60 60 180 180 180 180 183 183 192 192 192 192 192 220 220
 220 186 175 175 175 175 175 232 232 232 232 227 227 60 60 180 180 180 180 180
 180 180 137 137 137 192 192 220 220 220 220 66 66 66 175 232 232 232 232 232
 232 232 232 180 180 180 180 180 180 180 239 137 137 137 137 137 220 220 220 220
 220 66 66 232 232 232 232 232 232 232 232 232 180 180 180 180 180 180 180 239
 137 137 137 137 137 220 220 220 220 220 186 186 232 232 232 232 232 232 232 232
 180 180 180 180 180 180 180 180 180 137 137 137 137 220 220 220 220 220 220 186
 214 232 232 232 232 232 101 101 138 138 180 180 180 180 180 180 180 137 137 137
 137 137 220 220 220 220 220 186 186 214 214 232 232 232 101 101 101 138 138 180
 180 180 180 180 180 180 137 81 81 81 81 81 228 220 186 186 186 186 241 241
 232 232 101 101 101 101 138 138 138 30 32 180 180 180 180 27 81 81 81 81
 81 228 228 228 228 228 228 241 241 226 138 138 138 138 138 138 138 138 32 32
 32 32 143 81 81 81 81 81 81 81 228 228 228 228 228 228 228 226 226 226
 138 138 138 138 138 138 32 32 32 32 32 32 81 81 81 81 81 81 81 228
 228 228 228 8 228 226 226 226 226 138 138 138 138 138 138 89 89 89 32 32
 143 81 81 81 81 81 81 228 228 228 8 8 8 8 226 226 226 226 207 138
 138 138 138 89 89 89 89 89 143 143 143 81 81 81 81 81 228 228 8 8
 8 8 8 226 226 226 207 207 207 207 217 89 89 89 89 89 89 89 143 143
 81 81 18 18 18 18 8 8 8 8 8 8 226 226 226 207 207 207 207 89
 89 89 89 89 89 89 89 135 135 135 135 18 18 18 18 18 8 8 8 8
 8 147 147 147 147 207 207 207 217 89 89 89 89 89 49 49 135 135 135 135
 18 18 18 18 18 18 8 8 42 42 147 147 147 147 207 207 244 244 244 244
 244 49 49 49 49 135 135 135 135 18 18 18 18 18 18 8 42 42 42 42
 147 147 147 147 207 244 244 244 244 244 49 49 49 49 135 135 135 135 18 18
 18 18 18 36 36 36 42 42 42 42 147 147 147 244 244 244 244 244 244 49
 49 49 49 135 135 135 84 148 148 148 18 36 36 36 195 195 42 42 42 42
 155 155 97 97 244 244 244 49 49 49 49 84 84 84 84 84 148 148 159 159
 159 36 36 195 195 195 42 42 42 155 155 97 97 97 244 244 49 49 49 167
 167 84 84 84 196 196 76 159 159 159 36 36 195 195 195 195 42 155 155 155
 155 215 215 215 244 49 49 167 167 167 167 196 196 196 76 76 76 76 159 159
 36 195 195 195 104 104 104 104 155 215 215 215 215 215 60 167 167 167 167 167
 196 196 196 76 76 76 76 76 159 159 195 195 195 104 104 104 104 215 215 215
 215 215 60 60 60 167 167 167 167 196 196 76 76 76 76 76 76 159 159 159
 162 104 104 104 104 104 44 44 44 44 60 60 60 60 223 167 167 167 196 196
 76 76 76 76 76 76 76 159 162 162 162 31 31 31 31 31 44 44 44 60
 60 60 60 223 223 223 167 196 196 76 76 76 76 76 76 76 162 162 162 162
 31 31 31 31 31 44 44 44 60 60 60 60 223 223 223 223 183 183 76 76
 76 76 76 76 76 162 162 162 162 162 168 168 168 168 123 123 123 60 60 60
 60 223 223 223 223 183 183 150 150 150 150 150 92 92 162 162 162 162 175 168
 168 168 168 123 123 123 60 60 60 60 223 223 223 223 183 183 150 150 150 150
 150 92 92 162 162 175 175 175 175 168 168 168 123 123 123 60 60 60 60 223
 223 223 223 183 183 192 192 192 192 192 92 92 220 175 175 175 175 175 175 168
 232 232 123 123 60 60 60 60 180 180 180 180 239 239 192 192 192 192 192 192
 220 220 66 66 66 175 175 175 232 232 232 232 232 232 60 60 180 180 180 180
 180 239 239 137 137 137 192 192 192 220 220 66 66 66 66 175 232 232 232 232
 232 232 232 232 180 180 180 180 180 239 239 239 137 137 137 137 192 220 220 220
 220 66 66 66 232 232 232 232 232 232 232 232 30 30 30 180 180 180 239 239
 239 137 137 137 137 137 220 220 220 220 220 66 66 232 232 232 232 232 232 232
 232 30 30 30 30 180 180 239 239 137 137 137 137 137 137 220 220 220 220 220
 186 214 232 232 232 232 101 101 101 101 30 30 30 30 30 180 239 239 137 137
 137 137 137 137 220 220 220 220 220 186 241 241 90 90 90 101 101 101 101 101
 30 30 30 30 180 239 239 137 137 137 137 81 81 228 228 220 220 228 241 241
 241 90 90 90 101 101 101 101 138 30 30 30 30 30 143 143 143 81 81 81
 81 81 228 228 228 228 228 241 241 241 241 90 90 101 101 101 138 138 138 30
 30 30 143 143 143 143 81 81 81 81 81 228 228 228 228 228 241 241 241 226
 226 138 138 138 138 138 138 89 89 89 89 143 143 143 143 81 81 81 81 228
 228 228 228 228 228 228 241 226 226 226 138 138 138 138 138 89 89 89 89 89
 143 143 143 143 81 81 81 81 228 228 228 228 228 228 228 226 226 226 226 226
 138 138 138 89 89 89 89 89 89 143 143 143 143 81 81 81 209 228 228 228
 228 228 228 228 226 226 226 226 207 207 207 89 89 89 89 89 89 89 89 143
 143 143 135 81 18 18 228 228 228 228 228 228 228 226 226 226 147 207 207 207
 89 89 89 89 89 89 89 89 135 135 135 135 18 18 18 18 228 228 228 228
 228 228 147 147 147 147 147 207 207 89 89 89 89 89 89 89 135 135 135 135
 135 18 18 18 18 18 228 8 228 42 42 147 147 147 147 147 207 244 244 244
 89 89 89 49 49 49 135 135 135 135 135 18 18 18 18 18 8 42 42 42
 42 147 147 147 147 147 244 244 244 244 244 49 49 49 49 135 135 135 135 135
 18 18 18 18 18 195 195 42 42 42 42 147 147 147 147 244 244 244 244 49
 49 49 49 49 135 135 135 135 135 18 18 18 36 36 195 195 195 42 42 42
 42 155 155 155 97 244 244 244 49 49 49 49 49 135 135 135 84 148 148 18
 159 36 36 195 195 195 195 42 42 42 155 155 155 155 244 244 244 49 49 49
 167 167 84 84 84 196 196 76 76 76 36 36 195 195 195 195 195 42 155 155
 155 155 155 215 215 244 49 49 167 167 167 167 196 196 196 76 76 76 76 76
 159 195 195 195 195 103 104 104 155 155 155 215 215 215 215 60 167 167 167 167
 167 196 196 196 76 76 76 76 76 76 195 195 195 195 104 104 104 104 104 44
 44 44 44 44 60 250 250 167 167 167 196 196 76 76 76 76 76 76 76 159
 162 162 104 104 104 104 104 104 44 44 44 44 60 60 223 223 223 167 167 196
 196 76 76 76 76 76 76 76 162 162 162 162 104 104 31 31 31 44 44 44
 60 60 60 223 223 223 223 167 196 196 76 76 76 76 76 76 76 162 162 162
 162 162 31 31 31 31 44 44 44 60 60 60 223 223 223 223 223 223 183 150
 150 150 150 150 92 92 162 162 162 162 162 168 168 168 168 123 123 123 161 60
 60 223 223 223 223 223 223 86 150 150 150 150 150 92 92 92 162 162 162 162
 168 168 168 168 123 123 123 161 161 60 223 223 223 223 223 223 86 150 150 150
 150 150 92 92 92 162 162 162 175 168 168 168 168 123 123 123 161 161 60 223
 223 223 223 193 239 239 192 192 192 192 192 92 92 92 66 66 66 175 175 168
 168 168 123 123 123 161 161 60 223 193 193 193 239 239 239 192 192 192 192 192
 192 92 66 66 66 66 66 175 175 232 232 232 232 123 161 161 60 180 180 180
 180 239 239 239 137 137 192 192 192 192 192 220 66 66 66 66 175 232 232 232
 232 232 232 87 87 30 30 30 180 239 239 239 239 137 137 137 192 192 192 220
 220 66 66 66 66 66 232 232 232 232 232 232 87 30 30 30 30 30 239 239
 239 239 137 137 137 137 137 137 220 220 220 220 66 66 66 232 232 232 232 232
 101 101 30 30 30 30 30 30 239 239 239 137 137 137 137 137 137 220 220 220
 220 194 194 90 90 90 90 90 101 101 101 30 30 30 30 30 30 239 239 239
 137 137 137 137 137 228 220 220 194 194 241 241 90 90 90 90 90 101 101 101
 30 30 30 30 30 30 239 239 239 137 137 137 137 228 228 228 194 194 194 241
 241 241 90 90 90 90 101 101 101 101 30 30 30 30 30 143 143 143 81 81
 81 81 228 228 228 228 228 241 241 241 241 241 90 90 90 101 101 138 138 30
 30 30 30 143 143 143 143 81 81 81 81 209 228 228 228 228 228 241 241 241
 241 226 90 90 138 138 138 138 89 89 89 143 143 143 143 143 81 81 81 209
 209 228 228 228 228 228 241 241 241 226 226 226 138 138 138 138 89 89 89 89
 89 143 143 143 143 81 81 209 209 209 228 228 228 228 228 228 241 226 226 226
 226 138 138 138 89 89 89 89 89 89 143 143 143 143 81 209 209 209 209 228
 228 228 228 228 228 226 226 226 226 204 204 204 89 89 89 89 89 89 89 143
 143 143 143 135 238 238 209 209 228 228 228 228 228 228 226 226 147 147 204 204
 204 89 89 89 89 89 89 89 89 143 143 143 135 238 238 238 238 238 228 228
 228 228 228 147 147 147 147 204 204 204 89 89 89 89 89 89 89 135 135 135
 135 135 238 238 238 238 238 228 228 228 42 42 147 147 147 147 147 204 204 89
 89 89 89 89 89 49 135 135 135 135 135 238 238 238 238 238 238 15 42 42
 42 42 147 147 147 147 204 204 244 244 82 82 49 49 49 49 135 135 135 135
 135 238 238 238 238 15 15 195 42 42 42 42 147 147 147 204 201 244 244 244
 49 49 49 49 49 135 135 135 135 135 238 238 238 238 15 195 195 195 42 42
 42 42 155 155 155 201 201 244 244 49 49 49 49 49 24 24 135 24 24 74
 74 238 36 36 195 195 195 195 42 42 42 155 155 155 201 201 201 244 49 49
 49 197 197 24 24 24 24 24 76 76 76 195 195 195 195 195 195 103 103 155
 155 155 155 201 201 201 244 49 49 197 197 197 197 24 24 24 76 76 76 76
 76 195 195 195 195 103 103 103 243 243 155 155 155 215 215 215 250 250 197 197
 197 197 197 24 196 76 76 76 76 76 76 195 195 195 103 103 243 243 243 243
 44 44 44 44 44 250 250 250 197 197 197 197 196 76 76 76 76 76 76 76
 173 173 162 103 243 243 104 104 243 44 44 44 44 60 250 250 250 250 197 197
 197 196 76 76 76 76 76 76 76 162 162 162 162 104 104 31 31 31 44 44
 44 44 60 223 223 223 223 223 197 197 196 86 150 150 150 150 150 92 162 162
 162 162 162 31 31 31 31 44 44 161 161 60 223 223 223 223 223 223 223 86
 150 150 150 150 150 92 92 92 162 162 162 162 168 168 31 31 123 123 161 161
 161 223 223 223 223 223 223 223 86 150 150 150 150 150 92 92 92 162 162 162
 162 168 168 168 168 123 123 123 161 161 161 223 223 223 223 193 193 86 150 150
 150 150 150 92 92 92 162 162 162 162 168 168 168 168 123 123 161 161 161 161
 223 223 193 193 193 193 86 192 192 192 192 192 92 92 92 66 66 66 66 168
 168 168 168 123 123 161 161 161 161 193 193 193 193 193 239 239 192 192 192 192
 192 192 92 92 66 66 66 66 175 168 232 232 232 232 161 161 161 161 193 193
 193 193 239 239 239 192 192 192 192 192 192 192 220 66 66 66 66 187 187 232
 232 232 232 87 87 87 30 30 30 193 239 239 239 239 137 137 192 192 192 192
 192 220 66 66 66 66 66 232 232 232 232 232 87 87 30 30 30 30 30 239
 239 239 239 137 137 137 137 192 192 192 194 194 194 194 172 90 90 232 232 90
 188 87 87 30 30 30 30 30 30 239 239 239 137 137 137 137 192 192 194 194
 194 194 194 194 90 90 90 90 90 90 101 87 30 30 30 30 30 30 239 239
 239 137 137 137 137 192 194 194 194 194 194 194 194 194 90 90 90 90 90 101
 101 30 30 30 30 30 30 239 239 239 132 132 132 132 209 228 194 194 194 194
 194 241 241 90 90 90 90 90 101 101 30 30 30 30 30 30 30 143 143 132
 132 132 132 209 228 228 228 194 194 241 241 241 241 90 90 90 90 101 138 138
 30 30 30 30 143 143 143 143 143 132 209 209 209 228 228 228 228 241 241 241
 241 241 90 90 90 90 138 138 89 89 89 30 143 143 143 143 143 143 209 209
 209 209 228 228 228 228 241 241 241 241 241 226 226 138 138 138 89 89 89 89
 89 89 143 143 143 143 143 209 209 209 209 228 228 228 228 228 241 241 241 226
 226 204 204 138 89 89 89 89 89 89 89 143 143 143 143 143 209 209 209 209
 228 228 228 228 228 228 226 226 226 204 204 204 204 89 89 89 89 89 89 89
 143 143 143 143 93 238 238 238 238 228 228 228 228 228 228 226 226 204 204 204
 204 204 89 89 89 89 89 89 89 143 143 143 143 93 238 238 238 238 238 228
 228 228 228 228 147 147 147 204 204 204 204 89 89 89 89 89 89 89 89 135
 135 135 93 93 238 238 238 238 15 15 15 42 42 147 147 147 204 204 204 204
 89 89 89 82 82 82 82 135 135 135 135 135 93 238 238 238 238 15 15 15
 42 42 42 147 147 147 204 204 204 80 80 82 82 82 82 49 49 135 135 135
 135 135 238 238 238 238 15 15 15 42 42 42 42 147 147 204 201 201 80 80
 80 82 82 49 49 49 135 135 135 135 74 74 238 238 15 15 15 15 195 42
 42 42 42 155 155 201 201 201 80 73 73 49 49 49 24 24 24 24 24 74
 74 74 74 15 15 195 195 195 195 42 42 155 155 155 201 201 201 201 73 73
 73 49 197 197 24 24 24 24 74 74 74 222 34 34 195 195 195 103 103 103
 243 155 155 201 201 201 201 73 73 73 197 197 197 197 24 24 24 74 74 222
 222 222 34 34 195 103 103 103 103 243 243 155 155 201 201 201 250 250 250 197
 197 197 197 197 68 68 68 23 222 222 222 34 173 173 173 103 103 243 243 243
 243 44 44 44 44 250 250 250 250 197 197 197 197 68 23 23 23 23 23 23
 173 173 173 173 173 243 243 243 243 243 44 44 44 44 250 250 250 250 250 197
 197 197 68 23 23 23 23 23 23 173 173 173 173 173 243 243 243 243 243 44
 44 44 44 250 250 250 250 250 250 197 197 68 86 86 23 150 150 150 92 162
 162 162 162 162 31 31 31 31 44 44 161 161 161 223 223 223 223 223 223 14
 86 86 86 150 150 150 92 92 92 162 162 162 162 168 168 168 168 123 161 161
 161 161 161 223 223 223 223 193 193 86 86 86 150 150 150 92 92 92 162 162
 162 162 168 168 168 168 123 123 161 161 161 161 223 223 193 193 193 193 86 86
 86 150 150 150 92 92 92 92 162 162 162 168 168 168 168 123 161 161 161 161
 161 161 193 193 193 193 193 86 192 192 192 192 150 92 92 92 92 66 66 66
 168 168 168 168 123 161 161 161 161 161 193 193 193 193 193 193 193 192 192 192
 192 192 192 92 92 66 66 66 66 187 168 187 187 232 161 161 161 161 161 193
 193 193 193 239 239 239 192 192 192 192 192 192 192 192 66 66 66 187 187 187
 187 187 187 87 87 87 87 87 193 193 193 193 239 239 239 239 192 192 192 192
 192 192 172 172 172 172 172 187 187 187 187 188 87 87 87 87 87 30 30 30
 239 239 239 239 137 137 137 192 192 192 172 172 172 172 172 172 172 90 90 90
 188 188 87 87 87 30 30 30 30 30 239 239 239 137 137 137 137 192 192 194
 194 194 194 194 194 194 90 90 90 90 188 188 87 87 30 30 30 30 30 239
 239 239 137 137 137 137 192 194 194 194 194 194 194 194 194 90 90 90 90 90
 188 188 87 30 30 30 30 30 239 239 239 132 132 132 132 132 194 194 194 194
 194 194 194 241 90 90 90 90 90 188 188 30 30 30 30 30 30 143 143 143
 132 132 132 132 132 228 228 194 194 194 194 241 241 241 90 90 90 90 90 138
 30 30 30 30 30 143 143 143 143 132 132 132 209 209 65 65 65 194 194 241
 241 241 241 90 90 90 90 90 181 181 181 181 89 143 143 143 143 143 132 132
 209 209 209 65 65 65 65 241 241 241 241 241 226 90 90 90 181 181 181 181
 181 89 89 143 143 143 143 143 209 209 209 209 65 65 65 65 65 241 241 241
 241 204 204 204 204 89 89 181 181 89 89 89 143 143 143 143 143 209 209 209
 209 65 65 65 65 65 228 241 226 204 204 204 204 204 89 89 89 89 89 89
 89 143 143 143 143 93 93 238 238 238 65 65 65 65 65 228 226 226 204 204
 204 204 204 204 89 89 89 89 89 89 143 143 143 143 93 93 238 238 238 238
 46 46 46 46 71 71 147 204 204 204 204 204 204 89 89 89 82 89 89 221
 221 221 93 93 93 238 238 238 238 15 15 15 15 71 147 147 204 204 204 204
 204 204 80 82 82 82 82 82 82 135 135 93 93 93 40 238 238 238 15 15
 15 15 42 42 147 204 204 204 204 204 80 80 80 82 82 82 82 49 135 135
 93 93 40 40 238 238 15 15 15 15 15 42 42 42 147 204 204 204 80 80
 80 80 82 82 82 82 24 24 24 135 74 74 74 74 238 15 15 15 15 15
 42 42 42 42 155 155 201 201 201 80 73 73 73 73 49 24 24 24 24 74
 74 74 74 74 15 15 15 15 15 195 103 103 243 155 155 201 201 201 73 73
 73 73 73 197 197 24 24 24 74 74 74 74 222 34 34 34 34 34 103 103
 103 243 243 243 201 201 201 73 73 73 73 197 197 197 197 68 68 68 74 74
 222 222 222 34 34 173 173 103 103 103 243 243 243 155 201 201 73 73 73 73
 197 197 197 197 68 68 68 68 23 222 222 222 34 173 173 173 173 103 243 243
 243 243 243 44 44 250 250 250 250 250 197 197 197 68 68 68 23 23 23 23
 23 34 173 173 173 173 173 243 243 243 243 44 44 44 44 250 250 250 250 250
 197 197 68 68 23 23 23 23 23 23 23 173 173 173 173 173 243 243 243 243
 44 44 44 161 250 250 250 250 250 250 197 68 68 86 86 23 23 23 23 96
 96 173 173 173 173 31 31 31 31 174 161 161 161 161 161 250 250 250 14 14
 14 86 86 86 86 23 150 92 92 96 96 162 162 162 168 168 168 168 161 161
 161 161 161 161 223 223 223 14 193 86 86 86 86 86 150 150 92 92 96 96
 96 162 162 168 168 168 168 123 161 161 161 161 161 161 193 193 193 193 193 86
 86 86 86 150 150 92 92 96 96 96 162 162 187 168 168 168 161 161 161 161
 161 161 161 193 193 193 193 193 86 86 86 192 192 150 92 92 96 96 66 66
 187 187 187 187 187 161 161 161 161 161 161 193 193 193 193 193 193 193 192 192
 192 192 192 192 92 96 96 66 66 187 187 187 187 187 187 161 161 161 161 161
 193 193 193 193 193 239 239 192 192 192 192 192 192 192 172 172 172 187 187 187
 187 187 187 187 87 87 87 87 87 87 193 193 193 193 239 239 239 192 192 192
 192 192 172 172 172 172 172 172 187 187 187 187 188 87 87 87 87 87 87 30
 30 193 239 239 239 137 192 192 192 192 192 172 172 172 172 172 172 172 187 187
 188 188 188 87 87 87 87 30 30 30 185 239 239 239 137 137 137 137 192 172
 172 172 172 172 172 172 172 172 90 188 188 188 188 87 87 87 30 30 30 185
 239 239 239 132 132 132 137 170 194 194 194 194 194 194 194 194 90 90 90 188
 188 188 188 87 30 30 30 30 30 185 239 239 132 132 132 170 170 194 194 194
 194 194 194 194 194 90 90 90 90 188 188 188 30 30 30 30 30 30 143 143
 132 132 132 132 170 170 170 194 194 194 194 194 194 241 241 90 90 90 90 188
 188 181 181 30 30 30 143 143 143 132 132 132 132 170 170 65 65 65 194 194
 194 241 241 241 90 90 90 90 136 181 181 181 181 181 59 143 143 143 143 132
 132 132 209 209 65 65 65 65 65 241 241 241 241 204 204 204 204 181 181 181
 181 181 181 181 143 143 143 143 132 132 209 209 209 65 65 65 65 65 241 241
 241 204 204 204 204 204 181 181 181 181 181 89 89 143 143 143 143 4 4 209
 209 209 65 65 65 65 65 65 241 204 204 204 204 204 204 89 89 181 181 181
 89 89 143 143 143 143 40 40 40 238 238 65 65 65 65 65 71 71 71 204
 204 204 204 204 204 89 89 89 89 89 89 221 221 221 221 40 40 93 238 238
 46 46 46 46 46 71 71 71 204 204 204 204 204 204 89 89 82 82 82 82
 221 221 221 93 93 40 93 238 238 46 46 46 46 46 71 71 71 204 204 204
 204 204 80 80 82 82 82 82 82 221 221 221 93 93 40 40 238 238 15 15
 15 15 15 71 71 71 71 204 204 204 204 80 80 80 82 82 82 82 221 221
 221 93 40 40 40 238 238 15 15 15 15 15 71 71 71 71 204 204 204 80
 80 80 80 82 82 82 82 221 24 24 135 74 74 74 74 74 15 15 15 15
 15 71 71 71 146 191 191 201 80 80 80 80 73 73 73 82 24 24 24 24
 74 74 74 74 74 34 15 15 34 34 34 146 146 146 146 146 201 201 80 80
 73 73 73 73 197 197 68 68 68 74 74 74 222 222 34 34 34 34 34 34
 146 146 146 146 146 201 201 201 73 73 73 73 73 197 197 68 68 68 68 74
 74 222 222 222 34 34 34 173 173 146 146 146 146 146 146 201 201 73 73 73
 73 197 197 197 68 68 68 68 74 222 222 222 222 34 34 173 173 173 173 243
 243 243 243 243 44 44 73 250 250 250 250 197 197 68 68 68 68 23 23 23
 222 222 34 173 173 173 173 173 243 243 243 243 44 174 44 249 249 250 250 250
 14 14 68 68 68 23 23 23 23 23 23 34 173 173 173 173 173 243 243 243
 243 174 174 174 161 249 249 249 250 14 14 14 14 68 86 86 23 23 23 23
 96 96 173 173 173 173 173 47 47 174 174 174 174 161 161 249 249 14 14 14
 14 14 86 86 86 86 23 23 23 96 96 96 96 162 173 47 47 47 174 174
 174 174 161 161 249 249 14 14 14 14 14 86 86 86 86 23 23 92 96 96
 96 96 162 162 47 47 47 47 174 174 127 127 127 127 249 193 193 193 193 205
 86 86 86 86 86 150 92 96 96 96 96 96 187 187 47 47 47 174 127 127
 127 127 127 193 193 193 193 193 193 86 86 86 86 192 150 92 96 96 96 96
 187 187 187 187 187 187 187 127 127 127 127 127 193 193 193 193 193 193 193 192
 192 192 192 192 192 96 96 96 96 187 187 187 187 187 187 187 87 87 87 87
 87 193 193 193 193 193 193 193 154 154 192 192 192 192 172 172 172 172 187 187
 187 187 187 187 187 87 87 87 87 87 87 193 193 193 193 193 239 154 154 154
 192 192 192 172 172 172 172 172 172 187 187 187 187 188 188 87 87 87 87 87
 185 185 185 185 239 239 154 154 154 192 192 172 172 172 172 172 172 172 172 187
 187 188 188 188 188 87 87 87 87 185 185 185 185 239 239 154 154 154 154 154
 172 172 172 172 172 172 172 172 172 90 188 188 188 188 87 87 87 87 185 185
 185 185 239 239 132 132 132 170 170 172 172 172 172 194 194 172 172 172 90 188
 188 188 188 188 87 87 30 185 185 185 185 185 185 132 132 132 170 170 116 194
 194 194 194 194 194 194 90 90 188 188 188 188 188 87 59 59 59 59 185 185
 185 132 132 132 132 170 170 170 194 194 194 194 194 194 241 241 90 90 188 188
 188 136 136 59 59 59 59 59 202 143 132 132 132 132 170 170 170 65 65 194
 194 194 194 117 241 90 90 136 136 136 136 136 181 59 59 59 59 143 143 132
 132 132 132 170 170 65 65 65 65 65 117 117 117 117 117 204 204 136 136 136
 181 181 181 59 59 143 143 143 143 132 132 132 170 170 65 65 65 65 65 117
 117 117 117 204 204 204 136 136 136 181 181 181 181 59 143 143 143 143 4 4
 4 209 209 65 65 65 65 65 117 117 117 204 204 204 204 204 136 136 181 181
 181 89 89 221 221 221 221 4 4 4 4 46 46 46 46 46 46 71 71 71
 204 204 204 204 204 204 89 89 89 89 89 221 221 221 221 221 40 93 93 93
 46 46 46 46 46 46 71 71 71 71 204 204 204 204 204 89 89 82 82 82
 221 221 221 221 221 93 93 93 93 46 46 46 46 46 46 71 71 71 71 204
 204 204 204 80 80 82 82 82 82 221 221 221 221 221 93 93 93 93 46 46
 46 46 46 46 71 71 71 71 191 204 204 204 80 80 80 82 82 82 82 221
 221 221 221 93 93 93 93 46 15 15 15 15 15 71 71 71 191 191 191 204
 80 80 80 80 82 82 82 82 221 221 237 237 74 74 74 74 15 15 15 15
 15 15 71 71 191 191 191 191 80 80 80 80 80 73 73 73 82 237 237 237
 237 74 74 74 74 74 34 34 34 34 34 34 146 146 146 146 146 146 80 80
 80 73 73 73 73 73 68 68 68 68 74 74 74 222 222 34 34 34 34 34
 34 146 146 146 146 146 146 146 80 73 73 73 73 73 197 68 68 68 68 68
 74 222 222 222 222 34 34 34 34 173 146 146 146 146 146 146 146 80 73 73
 73 73 73 197 68 68 68 68 68 222 222 222 222 222 34 34 34 173 173 146
 146 146 146 146 146 146 146 249 249 249 249 250 197 68 68 68 68 68 23 23
 222 222 222 34 34 173 173 173 173 146 146 146 146 146 174 174 249 249 249 249
 14 14 14 14 68 68 23 23 23 23 23 23 34 34 173 173 173 173 146 146
 146 174 174 174 174 249 249 249 249 14 14 14 14 14 68 86 86 23 23 23
 23 2 96 173 173 173 173 47 47 47 174 174 174 174 127 249 249 249 14 14
 14 14 14 205 86 86 86 23 23 23 96 96 96 96 173 47 47 47 47 174
 174 174 174 127 127 249 249 14 14 14 14 205 205 86 86 86 23 23 96 96
 96 96 96 96 47 47 47 47 47 174 174 127 127 127 127 249 193 193 193 205
 205 205 86 86 86 86 150 96 96 96 96 96 187 187 47 47 47 47 174 127
 127 127 127 127 249 193 193 193 193 205 205 86 86 86 86 150 96 96 96 96
 96 187 187 187 187 187 187 174 127 127 127 127 127 193 193 193 193 193 193 205
 86 192 192 192 192 192 96 96 96 187 187 187 187 187 187 187 187 87 87 87
 87 87 87 193 193 193 193 193 205 154 154 154 154 154 154 172 172 172 172 187
 187 187 187 187 187 187 87 87 87 87 87 87 193 193 193 193 193 154 154 154
 154 154 154 172 172 172 172 172 172 172 35 35 35 187 188 188 37 37 87 87
 87 247 185 185 185 185 154 154 154 154 154 154 172 172 172 172 172 172 172 172
 35 35 188 188 188 37 37 87 87 87 185 185 185 185 185 154 154 154 154 154
 154 172 172 172 172 172 172 172 172 35 35 188 188 188 188 87 87 87 87 185
 185 185 185 185 154 112 112 112 112 170 172 172 172 172 172 172 172 172 172 188
 188 188 188 188 188 87 87 87 185 185 185 185 185 112 112 112 112 170 170 116
 116 172 194 194 194 194 172 172 188 188 188 188 188 188 136 59 59 59 59 202
 202 202 112 112 112 170 170 170 116 116 75 194 194 194 194 194 117 188 188 188
 188 136 136 136 136 59 59 59 202 202 202 132 132 132 170 170 170 116 116 75
 194 194 117 117 117 117 51 51 136 136 136 136 136 136 59 59 59 202 202 202
 132 79 79 170 170 170 116 65 65 65 117 117 117 117 117 117 51 136 136 136
 136 136 136 59 59 59 202 202 202 143 79 79 79 170 170 65 65 65 65 117
 117 117 117 117 117 51 136 136 136 136 136 136 181 59 59 202 202 143 79 4
 4 4 4 170 65 65 65 65 117 117 117 117 117 117 204 204 136 136 136 136