# vtk DataFile Version 2.0
Data set from ImportExport Version 6.5.171.b0b162591
ASCII

DATASET RECTILINEAR_GRID
DIMENSIONS 30 30 30
X_COORDINATES 30 float
-1.250000 1.250000 3.750000 6.250000 8.750000 11.250000 13.750000 16.250000 18.750000 21.250000 23.750000 26.250000 28.750000 31.250000 33.750000 36.250000 38.750000 41.250000 43.750000 46.250000 48.750000 
51.250000 53.750000 56.250000 58.750000 61.250000 63.750000 66.250000 68.750000 71.250000 
Y_COORDINATES 30 float
-1.250000 1.250000 3.750000 6.250000 8.750000 11.250000 13.750000 16.250000 18.750000 21.250000 23.750000 26.250000 28.750000 31.250000 33.750000 36.250000 38.750000 41.250000 43.750000 46.250000 48.750000 
51.250000 53.750000 56.250000 58.750000 61.250000 63.750000 66.250000 68.750000 71.250000 
Z_COORDINATES 30 float
-1.250000 1.250000 3.750000 6.250000 8.750000 11.250000 13.750000 16.250000 18.750000 21.250000 23.750000 26.250000 28.750000 31.250000 33.750000 36.250000 38.750000 41.250000 43.750000 46.250000 48.750000 
51.250000 53.750000 56.250000 58.750000 61.250000 63.750000 66.250000 68.750000 71.250000 
CELL_DATA 24389
SCALARS FeatureIds int 1
LOOKUP_TABLE default
 181 181 181 181 125 125 175 175 80 80 80 80 80 80 66 66 66 66 66 66
 66 66 207 207 207 207 207 21 181 181 181 181 181 125 125 175 175 175 80 80
 80 80 160 160 66 66 66 66 66 66 66 66 66 66 207 109 181 181 181 181
 181 181 125 125 175 175 175 80 80 80 160 160 160 160 66 66 66 66 66 66
 66 66 66 109 109 181 181 181 181 181 181 181 181 175 175 175 175 80 160 160
 160 160 160 160 66 66 66 66 66 66 66 109 109 109 181 181 181 181 181 181
 181 175 175 175 175 175 175 160 160 160 160 160 160 160 40 40 40 40 40 40
 109 109 109 181 181 181 181 181 181 181 175 175 175 175 175 226 160 160 160 160
 160 160 79 40 40 40 40 40 40 109 109 109 109 181 181 181 181 181 181 175
 175 175 226 226 226 226 64 64 64 64 79 79 79 40 40 40 40 40 109 109
 109 109 181 181 181 181 181 181 175 226 226 226 226 226 226 64 64 64 64 64
 79 79 79 40 40 40 82 82 82 109 109 181 42 42 42 42 42 42 226 226
 226 226 226 226 13 13 64 64 64 79 79 79 79 47 82 82 82 82 82 82
 42 42 42 42 42 42 42 226 226 226 226 226 226 13 13 64 64 64 79 79
 79 47 47 217 217 82 82 82 42 42 42 42 42 42 42 42 6 226 226 226
 226 226 225 225 225 225 225 79 79 47 47 47 47 217 217 82 82 42 42 42
 42 42 42 42 6 6 6 6 226 226 225 225 2 225 225 225 225 199 199 47
 47 47 217 217 217 69 69 42 42 42 42 42 42 6 6 6 6 6 226 2
 2 2 2 225 225 225 199 199 199 47 217 217 217 217 69 69 69 127 127 127
 42 42 6 6 6 6 6 6 2 2 2 2 2 2 199 199 199 199 199 199
 217 217 74 69 69 69 127 127 127 127 127 6 6 6 6 6 103 103 2 2
 2 2 2 123 123 199 199 199 199 74 74 74 69 69 69 115 115 115 115 10
 10 242 242 242 242 103 103 103 2 2 2 123 123 123 123 123 123 199 74 74
 74 74 69 69 115 115 115 10 10 10 10 242 242 242 103 103 103 103 103 103
 123 123 123 123 123 123 123 74 74 74 74 74 69 115 115 115 10 10 10 10
 10 242 242 103 103 103 103 103 123 123 123 123 123 123 123 123 124 124 124 124
 124 124 51 51 51 10 10 10 10 10 242 116 103 103 103 103 70 70 123 123
 123 123 123 123 123 124 124 124 124 124 124 51 51 51 51 10 10 10 10 116
 116 116 116 70 70 70 70 70 70 123 123 123 187 187 85 85 85 124 124 124
 51 51 51 51 51 10 10 116 116 116 116 116 70 70 70 70 70 70 70 187
 187 187 187 85 85 85 85 85 83 83 51 51 51 51 51 116 116 116 116 116
 116 70 70 70 70 70 70 70 187 187 187 187 85 85 85 85 83 83 83 83
 51 51 63 63 63 116 116 116 116 116 70 70 70 70 70 70 70 187 187 187
 85 85 85 85 83 83 83 83 227 227 63 63 63 63 63 116 116 116 116 29
 29 70 70 70 70 70 187 187 187 85 85 85 83 83 83 83 227 227 227 63
 63 63 63 63 63 116 116 29 29 29 29 29 70 70 70 187 187 187 85 85
 227 227 227 83 227 227 227 227 227 63 63 63 63 63 116 116 29 29 29 29
 29 29 70 207 207 207 207 207 207 227 227 227 227 227 227 227 227 227 63 63
 63 63 63 116 29 29 29 29 29 29 29 29 207 207 207 207 207 207 227 227
 227 227 227 227 227 227 227 63 63 63 63 63 29 29 29 29 29 29 29 29
 66 207 207 207 207 207 207 153 153 227 227 227 227 227 227 227 156 63 63 63
 63 29 29 29 29 29 29 29 66 66 66 66 207 207 207 207 153 153 153 227
 227 181 125 125 125 125 125 175 175 80 80 80 80 80 80 66 66 66 66 66
 66 66 66 207 207 207 207 21 21 21 181 125 125 125 125 125 175 175 175 80
 80 80 80 80 66 66 66 66 66 66 66 66 66 66 66 65 65 21 181 181
 125 125 125 125 125 175 175 175 80 80 80 80 160 160 160 66 66 66 66 66
 66 66 66 65 65 65 181 181 181 181 181 125 125 125 175 175 175 175 80 80
 160 160 160 160 160 66 66 66 66 66 66 66 65 65 65 181 181 181 181 181
 181 125 175 175 175 175 175 175 160 160 160 160 160 160 160 66 66 66 66 66
 65 65 65 65 181 181 181 181 181 181 125 175 175 175 175 175 175 160 160 160
 160 160 160 79 79 79 40 40 40 65 65 109 109 109 181 181 181 181 181 181
 175 175 175 175 175 226 226 64 64 64 64 79 79 79 79 40 40 40 82 82
 109 109 109 181 181 181 181 181 181 175 175 226 226 226 226 226 64 64 64 64
 79 79 79 79 79 40 82 82 82 82 82 82 181 42 42 42 42 42 174 226
 226 226 226 226 226 225 64 64 64 64 79 79 79 79 47 82 82 82 82 82
 82 42 42 42 42 42 42 174 226 226 226 226 226 226 225 225 64 64 64 79
 79 79 47 47 217 217 82 82 82 82 42 42 42 42 42 42 174 6 226 226
 226 226 225 225 225 225 225 225 79 79 47 47 47 217 217 217 82 82 42 42
 42 42 42 42 42 6 6 6 6 226 226 225 225 225 225 225 225 225 199 199
 47 47 47 217 217 217 69 69 42 42 42 42 42 42 6 6 6 6 6 6
 225 2 2 2 225 225 225 199 199 199 199 199 217 217 69 69 69 69 127 127
 127 42 6 6 6 6 6 6 6 2 2 2 2 2 225 199 199 199 199 199
 199 217 217 69 69 69 69 127 127 127 127 6 6 6 6 6 6 6 2 2
 2 2 2 2 123 123 199 199 199 199 74 74 74 69 69 69 127 127 127 127
 10 10 6 6 6 6 103 2 2 2 2 2 123 123 123 123 123 123 93 74
 74 74 74 69 69 115 115 115 10 10 10 10 10 242 242 103 103 103 103 103
 123 123 123 123 123 123 123 93 93 74 74 74 74 69 51 51 51 10 10 10
 10 10 242 242 103 103 103 103 70 123 123 123 123 123 123 123 93 93 93 74
 74 74 124 51 51 51 51 10 10 10 10 10 116 116 103 84 70 70 70 70
 123 123 123 123 123 123 93 93 124 124 124 124 51 51 51 51 51 10 10 10
 116 116 116 116 70 70 70 70 70 70 123 123 123 123 123 85 85 85 85 85
 85 51 51 51 51 51 51 116 116 116 116 116 116 70 70 70 70 70 70 70
 123 187 187 85 85 85 85 85 85 83 83 51 51 51 51 51 116 116 116 116
 116 116 70 70 70 70 70 70 70 187 187 187 85 85 85 85 83 83 83 83
 83 51 51 63 63 63 116 116 116 116 116 70 70 70 70 70 70 70 187 187
 187 85 85 85 85 83 83 83 83 227 227 63 63 63 63 63 116 116 116 1
 29 29 70 70 70 70 70 187 187 187 85 85 85 83 83 83 83 83 227 227
 63 63 63 63 63 63 116 116 29 29 29 29 29 70 70 70 207 207 207 85
 85 227 83 83 83 83 227 227 227 63 63 63 63 63 63 63 116 29 29 29
 29 29 70 134 134 207 207 207 207 207 227 227 227 83 227 227 227 227 63 63
 63 63 63 63 63 29 29 29 29 29 29 29 134 134 207 207 207 207 207 227
 227 227 227 227 227 227 227 63 63 63 63 63 63 29 29 29 29 29 29 29
 29 134 134 207 207 207 207 207 153 153 227 227 227 227 227 156 156 156 63 63
 63 63 29 29 29 29 29 29 29 66 66 66 66 207 207 207 207 153 153 153
 227 227 21 125 125 125 125 125 125 80 80 80 80 80 80 80 134 134 134 66
 66 66 66 66 207 207 207 207 21 21 21 125 125 125 125 125 125 125 175 80
 80 80 80 80 80 80 66 66 66 66 66 66 66 66 66 65 65 65 21 21
 125 125 125 125 125 125 125 175 175 80 80 80 80 80 160 160 66 66 66 66
 66 66 66 66 65 65 65 65 181 181 125 125 125 125 125 175 175 175 175 80
 80 80 160 160 160 160 66 66 66 66 66 66 65 65 65 65 65 181 181 181
 181 125 125 175 175 175 175 175 175 80 160 160 160 160 160 160 66 66 66 66
 66 65 65 65 65 65 181 181 181 181 181 125 175 175 175 175 175 175 80 160
 160 160 160 160 79 79 79 177 177 65 65 65 65 65 65 181 181 181 181 181
 125 175 175 175 175 175 175 175 64 64 64 64 79 79 79 79 79 40 65 65
 65 65 65 65 181 181 181 181 181 174 175 175 175 226 226 226 226 64 64 64
 64 79 79 79 79 79 79 82 82 82 82 82 82 181 42 42 42 42 174 174
 174 226 226 226 226 226 225 225 64 64 79 79 79 79 79 47 82 82 82 82
 82 82 42 42 42 42 42 174 174 174 226 226 226 226 225 225 225 225 64 64
 79 79 79 47 47 217 217 82 82 82 82 42 42 42 42 42 174 174 174 226
 226 226 226 225 225 225 225 225 225 79 199 199 47 47 217 217 217 82 82 42
 42 42 42 42 42 174 174 6 6 6 226 225 225 225 225 225 225 225 225 199
 199 199 199 199 217 217 217 69 69 42 42 42 42 42 174 6 6 6 6 6
 225 225 225 225 225 225 225 225 199 199 199 199 199 217 217 69 69 69 69 127
 127 127 42 6 6 6 6 6 6 225 225 2 2 2 225 225 225 199 199 199
 199 199 199 199 69 69 69 69 127 127 127 42 42 6 6 6 6 6 6 2
 2 2 2 225 225 123 199 199 199 199 199 199 74 74 69 69 69 127 127 127
 10 10 10 6 6 6 6 6 2 2 2 2 225 123 123 123 123 123 123 93
 74 74 74 74 69 69 115 115 51 10 10 10 10 10 242 6 84 84 84 84
 84 84 123 123 123 123 123 123 93 93 74 74 74 74 69 51 51 51 51 10
 10 10 10 10 6 84 84 84 84 84 84 123 123 123 123 123 123 93 93 93
 74 74 74 69 51 51 51 51 51 10 10 10 10 116 84 84 84 84 84 70
 70 123 123 123 123 123 93 93 93 93 74 74 124 51 51 51 51 51 51 10
 10 116 116 116 116 70 70 70 70 70 70 123 123 123 123 93 93 85 85 85
 85 83 51 51 51 51 51 51 51 116 116 116 116 116 70 70 70 70 70 70
 70 123 209 209 209 85 85 85 85 83 83 51 51 51 51 51 51 63 116 116
 116 116 116 70 70 70 70 70 70 70 70 209 209 85 85 85 85 83 83 83
 83 51 51 51 51 63 63 63 116 116 116 1 1 70 70 70 70 70 70 70
 187 187 85 85 85 85 83 83 83 83 83 120 51 63 63 63 63 63 116 1
 1 1 29 70 70 70 70 70 45 45 45 85 85 85 83 83 83 83 83 83
 120 63 63 63 63 63 63 63 1 1 29 29 29 29 70 70 134 45 207 207
 207 85 85 83 83 83 83 227 227 120 63 63 63 63 63 63 63 1 29 29
 29 29 29 29 134 134 134 207 207 207 207 207 83 83 83 83 227 227 227 63
 63 63 63 63 63 63 29 29 29 29 29 29 134 134 134 134 207 207 207 207
 207 227 227 227 227 227 227 156 63 63 63 63 63 63 63 29 29 29 29 29
 29 134 134 134 134 207 207 207 207 207 153 227 227 227 227 156 156 156 156 63
 63 63 63 80 80 80 29 29 29 134 134 134 134 66 207 207 207 207 207 153
 153 227 227 21 156 156 156 156 156 156 80 80 80 80 80 80 80 80 134 134
 134 134 66 66 66 207 207 207 21 21 21 21 21 156 156 156 125 125 125 80
 80 80 80 80 80 80 80 134 134 66 66 66 66 66 66 66 65 21 21 21
 21 125 125 125 125 125 125 125 175 80 80 80 80 80 80 80 160 66 66 66
 66 66 66 66 65 65 65 65 65 21 181 125 125 125 125 125 175 175 175 80
 80 80 80 235 235 160 160 66 66 66 66 66 66 65 65 65 65 65 65 181
 181 125 125 125 175 175 175 175 175 80 80 80 235 160 160 160 177 177 177 177
 177 65 65 65 65 65 65 65 181 181 181 125 125 175 175 175 175 175 80 80
 80 160 160 160 160 79 177 177 177 177 65 65 65 65 65 65 181 181 181 181
 181 125 175 175 175 175 175 175 80 64 64 64 64 79 79 79 177 177 177 65
 65 65 65 65 65 181 181 181 181 174 174 175 175 175 175 175 226 225 225 64
 64 64 79 79 79 79 79 79 65 65 82 82 65 65 181 42 42 42 174 174
 174 174 226 226 226 226 225 225 225 225 64 79 79 79 79 79 47 82 82 82
 82 82 67 42 42 42 42 174 174 174 174 174 226 226 226 225 225 225 225 225
 225 79 79 199 199 47 217 217 82 82 67 67 42 42 42 42 174 174 174 174
 174 226 226 225 225 225 225 225 225 225 79 199 199 199 199 199 217 217 67 67
 67 42 42 42 42 174 174 174 174 174 6 226 225 225 225 225 225 225 225 225
 199 199 199 199 199 199 217 67 67 67 42 42 42 42 42 174 174 174 6 6
 6 225 225 225 225 225 225 225 225 199 199 199 199 199 199 199 67 67 67 42
 42 42 42 42 174 6 6 6 6 6 225 225 225 225 225 225 225 225 199 199
 199 199 199 199 199 69 69 69 69 127 127 42 42 6 6 6 6 192 192 225
 225 225 225 225 225 225 197 139 139 139 199 199 199 74 74 69 69 69 127 127
 42 51 10 192 192 192 192 192 84 84 84 84 84 84 84 197 197 139 139 139
 93 93 74 74 74 69 69 51 51 51 51 10 10 192 192 192 192 84 84 84
 84 84 84 84 123 123 123 123 123 93 93 93 74 74 74 69 51 51 51 51
 51 10 10 202 202 192 84 84 84 84 84 84 123 123 123 123 123 93 93 93
 93 93 74 74 185 51 51 51 51 51 51 10 202 202 202 84 84 84 84 84
 84 84 123 123 123 123 209 93 93 93 93 93 93 185 51 51 51 51 51 51
 51 202 202 116 84 84 84 84 84 70 70 70 123 123 209 209 209 93 93 93
 93 93 83 51 51 51 51 51 51 51 116 116 116 214 214 214 70 70 70 70
 70 70 209 209 209 209 209 85 85 85 83 83 51 51 51 51 51 51 63 116
 116 116 214 214 214 70 70 70 70 70 70 209 209 209 209 209 85 85 83 83
 83 83 120 120 120 120 63 63 63 116 116 1 1 1 70 70 70 70 70 70
 209 209 209 209 85 85 85 83 83 83 83 120 120 120 120 63 63 63 63 1
 1 1 1 1 70 70 70 70 70 45 45 45 45 45 85 83 83 83 83 83
 120 120 120 120 63 63 63 63 1 1 1 1 29 29 29 70 134 45 45 45
 45 45 45 45 83 83 83 83 227 120 120 120 120 63 63 63 63 63 1 1
 29 29 29 29 134 134 134 134 45 45 45 45 45 83 83 83 83 227 120 120
 120 120 63 63 63 63 63 1 29 29 29 29 29 134 134 134 134 45 45 45
 45 45 45 227 227 227 227 156 156 120 120 63 63 63 63 80 80 80 29 29
 29 134 134 134 134 134 207 207 207 207 207 207 170 227 227 156 156 156 156 156
 112 112 112 80 80 80 80 80 29 134 134 134 134 134 134 207 207 207 207 207
 170 170 227 21 21 156 156 156 156 156 112 112 80 80 80 80 80 80 80 134
 134 134 134 134 66 66 207 207 65 21 21 21 21 21 21 156 156 156 156 156
 80 80 80 80 80 80 80 235 235 134 66 66 66 66 66 66 65 65 21 21
 21 21 21 97 97 97 125 125 125 80 80 80 80 80 80 235 235 235 66 66
 66 66 66 66 66 65 65 65 65 21 21 21 97 97 125 125 97 175 175 175
 80 80 80 235 235 235 235 177 177 177 177 177 177 65 65 65 65 65 65 65
 181 97 97 97 97 97 175 175 175 80 80 80 235 235 235 235 177 177 177 177
 177 177 65 65 65 65 65 65 65 181 97 97 97 97 175 175 175 175 175 80
 80 235 235 235 160 160 177 177 177 177 177 177 65 65 65 65 65 65 181 181
 181 97 97 175 175 175 175 175 175 80 235 235 64 64 79 177 177 177 177 177
 65 65 65 65 65 65 65 181 181 181 174 174 174 175 175 175 175 175 225 225
 225 64 64 79 79 79 177 177 177 65 65 65 65 65 65 55 42 42 174 174
 174 174 174 174 226 226 225 225 225 225 225 225 79 79 79 34 34 199 199 82
 82 82 65 67 67 42 42 174 174 174 174 174 174 226 226 225 225 225 225 225
 225 225 79 34 34 199 199 199 199 82 67 67 67 67 42 42 174 174 174 174
 174 174 226 226 225 225 225 225 225 225 225 225 199 199 199 199 199 199 217 67
 67 67 67 42 42 42 174 174 174 174 174 6 225 225 225 225 225 225 225 225
 225 199 199 199 199 199 199 217 67 67 67 67 42 42 42 174 174 174 174 174
 192 225 225 225 225 225 225 225 225 225 199 199 199 199 199 199 199 67 67 67
 67 42 42 42 42 174 174 192 192 192 192 225 225 225 225 225 225 225 197 197
 139 139 199 199 199 199 67 69 69 69 127 127 42 42 192 192 192 192 192 192
 192 225 225 225 225 225 225 197 197 139 139 139 199 199 74 74 69 69 69 127
 127 42 192 192 192 192 192 192 192 192 84 84 84 84 84 84 197 197 139 139
 139 93 93 93 74 74 69 69 51 51 51 51 192 192 192 192 192 192 84 84
 84 84 84 84 84 197 197 197 139 139 93 93 93 93 74 185 185 51 51 51
 51 51 202 202 202 202 192 84 84 84 84 84 84 84 197 197 197 209 93 93
 93 93 93 93 185 185 51 51 51 51 51 51 202 202 202 202 84 84 84 84
 84 84 84 123 105 209 209 209 93 93 93 93 93 185 185 51 51 51 51 51
 51 51 202 202 202 84 84 84 84 84 84 84 105 105 209 209 209 209 209 93
 93 93 185 185 51 51 51 51 51 51 51 202 116 214 214 214 214 84 84 70
 70 70 209 209 209 209 209 209 93 93 31 83 83 51 51 51 51 51 51 51
 116 116 214 214 214 214 214 70 70 70 70 209 209 209 209 209 209 85 31 31
 83 83 120 120 120 120 120 120 63 63 63 214 214 214 214 214 70 70 70 70
 70 209 209 209 209 209 31 31 83 83 83 120 120 120 120 120 120 63 63 63
 1 1 1 1 1 70 70 70 245 45 45 45 45 45 45 45 31 31 83 83
 120 120 120 120 120 120 63 63 63 1 1 1 1 1 29 29 134 45 45 45
 45 45 45 45 45 31 83 83 83 120 120 120 120 120 120 63 63 63 63 1
 1 1 1 29 134 134 134 134 45 45 45 45 45 45 45 31 83 83 120 120
 120 120 120 120 63 63 63 205 1 1 29 29 29 134 134 134 134 134 45 45
 45 45 45 45 170 170 170 156 156 156 120 120 112 112 112 205 80 80 80 80
 29 134 134 134 134 134 134 45 45 45 45 45 170 170 170 21 156 156 156 156
 156 112 112 112 80 80 80 80 80 80 134 134 134 134 134 134 207 45 45 45
 45 170 170 170 21 21 156 156 156 156 112 112 112 49 80 80 80 80 80 80
 134 134 134 134 134 66 14 14 170 170 21 21 21 21 21 21 156 156 156 156
 112 112 49 80 80 80 80 80 235 235 134 134 134 66 66 14 14 65 65 21
 21 21 21 21 21 97 97 97 97 112 112 80 80 80 80 80 235 235 235 235
 177 177 177 177 14 44 65 65 65 21 21 21 21 97 97 97 97 97 175 175
 80 80 80 80 235 235 235 235 235 177 177 177 177 177 44 65 65 65 65 65
 21 21 97 97 97 97 97 175 175 175 80 80 80 235 235 235 235 235 177 177
 177 177 177 44 65 65 65 65 65 65 181 97 97 97 97 97 175 175 175 175
 80 80 235 235 235 235 177 177 177 177 177 177 44 65 65 65 65 65 65 55
 97 97 97 97 175 175 175 175 175 175 80 235 235 235 235 177 177 177 177 177
 177 44 44 65 65 65 65 65 55 55 174 174 174 174 175 175 175 175 175 225
 150 150 150 150 177 177 177 177 177 177 44 44 65 65 65 55 55 55 42 174
 174 174 174 174 75 75 75 225 225 150 150 150 225 225 34 34 34 34 34 44
 44 65 55 55 55 55 55 42 174 174 174 174 174 75 75 75 225 225 225 150
 150 225 225 34 34 34 34 34 199 44 67 67 67 55 55 42 42 174 174 174
 174 174 75 75 75 225 225 225 225 225 225 225 225 34 34 34 199 199 199 67
 67 67 67 67 42 42 174 174 174 174 174 174 75 75 225 225 225 225 225 225
 225 225 34 34 199 199 199 199 67 67 67 67 67 42 42 42 174 174 174 174
 192 192 192 225 225 225 225 225 225 225 225 197 199 199 199 199 199 67 67 67
 67 67 42 42 42 174 174 192 192 192 192 192 225 225 225 225 225 225 225 197
 197 139 139 139 199 199 236 67 67 67 67 25 25 25 192 192 192 192 192 192
 192 192 84 84 84 84 225 197 197 197 197 139 139 199 101 101 101 185 185 185
 25 25 25 192 192 192 192 192 192 192 192 84 84 84 84 84 84 197 197 197
 139 139 139 93 93 101 185 185 185 185 51 51 51 192 192 192 192 192 192 84
 84 84 84 84 84 84 197 197 197 197 197 93 93 93 185 185 185 185 185 51
 51 51 51 202 202 202 202 202 84 84 84 36 84 84 84 197 197 197 197 209
 93 93 93 93 185 185 185 51 51 51 51 51 51 202 202 202 202 84 84 84
 84 84 84 84 105 105 105 209 209 209 93 93 93 185 185 185 51 51 51 51
 51 51 202 202 202 202 214 84 84 84 84 84 84 105 105 209 209 209 209 209
 114 114 185 185 185 51 51 51 51 51 51 51 202 202 214 214 214 214 84 84
 84 84 105 105 209 209 209 209 209 114 114 31 31 185 120 120 120 120 120 120
 120 99 99 214 214 214 214 214 70 70 70 105 105 209 209 209 209 209 31 31
 31 31 31 120 120 120 120 120 120 120 63 99 99 214 214 214 214 70 70 70
 245 245 104 209 209 209 31 31 31 31 31 31 120 120 120 120 120 120 120 63
 99 99 99 214 1 1 70 70 245 245 245 45 45 45 45 45 31 31 31 31
 31 120 120 120 120 120 120 120 63 99 99 99 1 1 1 29 245 245 245 245
 45 45 45 45 45 31 31 31 31 31 120 120 120 120 120 120 120 63 205 99
 99 1 1 1 134 134 134 134 134 45 45 45 45 45 45 31 31 31 31 120
 120 120 120 120 120 120 205 205 205 205 205 29 29 134 134 134 134 134 45 45
 45 45 45 45 170 170 170 170 120 120 120 120 112 112 112 112 205 205 205 205
 80 80 134 134 134 134 134 134 45 45 45 45 170 170 170 170 21 156 156 156
 156 156 112 112 112 205 205 80 80 80 80 134 134 134 134 134 134 45 45 45
 45 170 170 170 170 21 21 21 156 156 156 112 112 112 49 80 80 80 80 80
 80 134 134 134 134 14 14 14 14 170 170 170 170 21 21 21 21 156 156 156
 112 112 49 49 49 80 80 80 80 235 235 32 32 32 14 14 14 14 14 170
 170 21 21 21 21 21 97 97 97 97 112 49 49 49 80 80 80 235 235 235
 32 32 32 14 14 14 44 44 65 65 21 21 21 21 97 97 97 97 97 112
 49 49 80 80 80 80 235 235 235 235 32 177 177 177 44 44 44 65 65 65
 21 21 21 97 97 97 97 97 175 175 175 80 80 80 235 235 235 235 39 177
 177 177 177 44 44 44 44 65 65 65 21 21 97 97 97 97 97 175 175 175
 80 80 80 235 235 235 39 39 177 177 177 177 44 44 44 44 65 65 65 65
 55 97 97 97 97 97 175 175 175 221 221 80 150 235 150 39 39 177 177 177
 177 44 44 44 44 65 65 55 55 55 55 22 174 174 75 75 75 75 75 75
 150 150 150 150 150 39 34 34 34 177 44 44 44 44 65 55 55 55 55 55
 174 174 174 75 75 75 75 75 75 150 150 150 150 150 150 34 34 34 34 34
 44 44 44 55 55 55 55 55 55 174 174 174 174 75 75 75 75 75 150 150
 150 150 150 150 34 34 34 34 34 34 44 55 55 55 55 55 55 55 174 174
 174 174 75 75 75 75 225 150 150 150 150 150 150 34 34 34 34 34 34 236
 67 67 67 55 55 25 25 25 174 174 174 174 75 75 75 225 225 225 150 225
 225 225 60 34 34 34 199 199 236 236 67 67 67 67 25 25 25 25 174 174
 174 192 192 192 225 225 225 225 225 225 225 225 197 34 199 199 199 101 236 67
 67 67 67 25 25 25 25 237 237 192 192 192 192 192 225 225 225 225 8 8
 197 197 197 197 197 101 101 236 236 236 67 25 25 25 25 25 192 192 192 192
 192 192 192 84 84 84 8 8 8 197 197 197 197 197 101 101 101 101 185 185
 185 25 25 25 25 192 192 192 192 192 192 192 84 84 84 84 8 8 197 197
 197 197 197 101 101 101 101 185 185 185 185 25 25 25 192 192 192 192 192 192
 84 84 84 84 84 84 8 197 197 197 197 197 101 101 101 185 185 185 185 185
 185 51 51 192 192 202 202 202 202 84 84 84 84 84 84 84 105 105 105 105
 209 209 114 114 185 185 185 185 185 51 51 51 51 51 202 202 202 202 84 84
 84 84 84 84 84 105 105 105 105 209 114 114 114 185 185 185 185 185 51 51
 51 51 51 202 202 202 202 214 84 84 84 84 84 84 105 105 105 105 209 114
 114 114 114 185 185 185 184 51 51 51 51 51 129 202 202 214 214 214 214 84
 84 84 84 105 105 105 209 209 209 114 114 114 185 185 185 120 120 120 120 120
 120 120 99 99 214 214 214 214 214 84 84 105 105 105 105 209 209 209 114 31
 31 31 31 31 120 120 120 120 120 120 120 99 99 99 214 121 121 121 121 245
 245 245 245 104 104 104 104 31 31 31 31 31 31 120 120 178 120 120 120 120
 99 99 99 99 121 121 121 121 245 245 245 245 104 104 104 104 31 31 31 31
 31 31 120 120 120 120 120 120 120 99 99 99 99 121 121 121 121 245 245 245
 245 245 45 45 45 45 31 31 31 31 31 120 120 120 120 120 120 120 205 205
 99 99 121 121 121 245 245 245 245 245 45 45 45 45 45 31 31 31 31 31
 120 120 120 120 120 120 120 205 205 205 205 205 205 205 134 134 134 245 245 45
 45 45 45 45 170 170 170 170 170 156 156 156 120 112 112 112 112 205 205 205
 205 205 205 134 134 134 134 134 45 45 45 45 45 170 170 170 170 170 156 156
 156 156 112 112 112 112 205 205 205 80 80 80 134 134 134 134 134 134 45 45
 45 170 170 170 170 170 21 21 21 156 156 112 112 112 112 49 49 205 80 80
 80 80 195 32 32 14 14 14 14 14 14 170 170 170 21 21 21 21 156 156
 156 112 112 49 49 49 80 80 80 80 80 32 32 32 32 14 14 14 14 14
 170 170 21 21 21 21 21 97 97 156 112 112 49 49 49 80 80 80 80 235
 32 32 32 32 14 14 14 14 14 14 21 21 21 21 21 97 97 97 97 97
 112 49 49 49 80 80 80 235 235 32 32 32 32 32 14 14 44 44 44 65
 65 21 21 21 97 97 97 97 97 221 221 221 221 221 80 80 235 235 39 39
 39 32 177 177 44 44 44 44 44 65 65 21 154 97 97 97 97 97 221 221
 221 221 221 221 80 235 39 39 39 39 39 177 177 44 44 44 44 44 65 154
 154 154 22 22 22 97 75 75 221 221 221 221 221 150 150 39 39 39 39 39
 177 54 44 44 44 44 44 154 154 154 154 22 22 22 174 75 75 75 75 75
 221 150 150 150 150 150 39 60 34 34 54 54 44 44 44 55 55 55 55 55
 22 22 174 174 75 75 75 75 75 75 150 150 150 150 150 60 60 34 34 34
 54 54 54 44 55 55 55 55 55 22 25 174 174 75 75 26 75 75 75 150
 150 150 150 150 60 60 34 34 34 34 54 54 55 55 55 55 55 25 25 25
 25 174 75 75 75 75 75 75 150 150 150 150 150 60 60 34 34 34 34 34
 236 236 55 55 55 55 25 25 25 25 237 237 237 75 75 75 150 150 150 150
 150 150 60 60 34 34 34 34 34 236 236 236 236 236 25 25 25 25 25 237
 237 237 89 89 89 89 225 225 8 8 8 8 8 34 34 34 101 101 236 236
 236 236 236 25 25 25 25 25 237 237 237 89 89 89 89 225 8 8 8 8
 8 8 197 197 197 101 101 101 236 236 236 236 25 25 25 25 25 237 237 237
 89 89 192 192 8 8 8 8 8 8 8 197 197 197 101 101 101 101 236 236
 236 25 25 25 25 25 237 237 192 192 192 192 192 84 84 8 8 8 8 8
 197 197 197 101 101 101 101 101 185 185 185 185 28 28 25 192 192 192 192 192
 192 84 84 84 84 8 8 8 8 197 197 197 101 101 101 101 101 185 185 185
 185 28 28 28 129 192 202 202 202 202 84 84 84 84 84 8 8 105 105 105
 105 105 101 101 101 185 185 185 185 28 28 28 28 129 129 129 202 202 202 84
 84 84 84 84 84 84 105 105 105 105 105 114 114 114 185 185 185 185 184 184
 184 129 129 129 129 202 202 27 214 84 84 84 84 84 105 105 105 105 105 105
 114 114 114 114 185 185 185 184 184 184 129 129 129 129 129 27 27 214 214 214
 84 84 84 105 105 105 105 105 209 114 114 114 114 185 185 185 184 178 178 178
 178 120 129 99 99 99 214 214 214 214 84 84 105 105 105 105 104 104 104 114
 31 31 31 31 31 178 178 178 178 178 120 120 99 99 99 99 121 121 121 121
 245 245 245 245 104 104 104 104 31 31 31 31 31 31 178 178 178 178 178 178
 120 99 99 99 99 121 121 121 121 245 245 245 245 104 104 104 104 31 31 31
 31 31 31 178 178 178 178 178 120 120 99 99 99 99 121 121 121 121 245 245
 245 245 245 104 104 104 31 31 31 31 31 31 178 178 178 178 120 120 120 205
 205 99 99 121 121 121 245 245 245 245 245 245 45 45 45 45 31 31 31 31
 31 56 178 178 120 120 120 205 205 205 205 205 205 121 121 245 245 245 245 245
 245 45 45 45 170 170 170 170 170 170 56 37 37 112 112 112 112 205 205 205
 205 205 205 205 195 195 245 245 245 245 45 45 45 170 170 170 170 170 170 56
 156 156 156 112 112 112 112 205 205 205 205 80 80 195 195 134 134 134 14 14
 14 14 170 170 170 170 170 170 21 21 37 37 112 112 112 112 49 205 205 241
 241 241 195 195 32 32 14 14 14 14 14 14 170 170 170 170 21 21 21 156
 37 112 112 112 112 49 49 241 241 241 241 32 32 32 32 32 14 14 14 14
 14 14 170 21 21 21 21 21 97 151 151 112 112 49 49 49 241 241 241 241
 32 32 32 32 32 14 14 14 14 14 14 21 21 21 21 21 97 151 151 151
 151 112 49 221 221 221 221 241 235 235 32 32 32 32 32 14 14 14 44 44
 44 65 21 21 21 97 151 151 151 151 221 221 221 221 221 221 80 235 39 39
 39 32 32 32 14 44 44 44 44 44 65 154 154 22 22 151 151 151 151 221
 221 221 221 221 221 221 39 39 39 39 39 39 39 54 44 44 44 44 44 154
 154 154 22 22 22 22 151 151 221 221 221 221 221 221 221 39 39 39 39 39
 39 54 54 54 44 44 44 154 154 154 154 22 22 22 22 22 75 75 75 75
 221 221 221 150 150 150 39 39 60 60 54 54 54 54 44 44 154 154 154 154
 22 22 22 22 75 75 75 75 75 75 221 150 150 150 150 60 60 60 60 34
 54 54 54 54 44 154 55 55 154 55 22 22 118 118 118 75 75 75 75 75
 150 150 150 150 60 60 60 60 34 34 54 54 54 55 55 55 55 55 25 25
 25 25 237 118 118 75 75 75 75 150 150 150 150 60 60 60 60 34 34 34
 54 236 236 236 55 55 55 25 25 25 25 237 237 237 89 89 89 89 150 150
 150 150 60 60 60 60 34 34 34 236 236 236 236 236 236 25 25 25 25 25
 237 237 237 89 89 89 89 150 150 8 8 8 8 8 222 222 222 101 101 236
 236 236 236 236 25 25 25 25 25 237 237 89 89 89 89 89 8 8 8 8
 8 8 8 222 222 222 101 101 101 236 236 236 236 25 25 25 25 25 237 237
 237 89 89 89 89 8 8 8 8 8 8 8 8 222 101 101 101 101 101 236
 236 236 25 25 25 25 25 237 237 237 89 89 89 89 84 8 8 8 8 8
 8 8 222 101 101 101 101 101 101 236 185 25 28 28 28 28 237 237 237 89
 192 192 84 84 8 8 8 8 8 8 8 197 101 101 101 101 101 101 185 185
 185 28 28 28 28 129 129 129 129 202 202 198 84 84 8 8 8 8 8 105
 105 105 101 101 101 101 101 185 185 185 28 28 28 28 129 129 129 129 202 27
 198 198 84 84 8 8 8 105 105 105 105 105 114 114 114 185 185 185 185 184
 184 184 129 129 129 129 129 27 27 198 198 198 84 84 84 105 105 105 105 105
 105 114 114 114 114 185 185 184 184 184 184 129 129 129 129 129 27 27 27 198
 198 84 84 84 105 105 105 105 105 105 114 114 114 114 185 185 184 184 184 178
 178 129 129 129 27 27 27 27 27 121 121 84 105 105 105 105 105 104 104 104
 114 31 31 31 31 184 184 178 178 178 178 178 129 99 99 99 99 121 121 121
 121 245 245 245 245 104 104 104 104 31 31 31 31 31 31 178 178 178 178 178
 178 120 99 99 99 99 121 121 121 121 245 245 245 245 104 104 104 104 31 31
 31 31 31 31 178 178 178 178 178 178 120 99 99 99 99 121 121 121 121 245
 245 245 245 245 104 104 104 31 31 31 31 31 31 178 178 178 178 178 178 120
 205 205 205 121 121 121 121 245 245 245 245 245 245 104 104 104 31 31 170 170
 170 170 56 56 37 37 37 37 205 205 205 205 205 205 121 195 195 245 245 245
 245 245 45 45 45 170 170 170 170 170 170 56 37 37 37 37 112 112 205 205
 205 205 205 205 195 195 195 245 245 245 245 45 14 45 170 170 170 170 170 170
 56 37 37 37 37 112 112 112 205 205 205 205 205 195 195 195 195 245 245 14
 14 14 14 14 170 170 170 170 170 37 37 37 37 37 112 112 112 241 241 241
 241 241 241 195 195 195 195 14 14 14 14 14 14 170 170 170 170 21 21 37
 37 37 37 112 112 112 241 241 241 241 241 241 241 32 32 32 32 14 14 14
 14 14 14 170 170 21 21 21 151 151 151 151 151 112 49 49 241 241 241 241
 241 241 32 32 32 32 14 14 14 14 14 18 18 18 21 21 21 151 151 151
 151 151 81 81 221 221 221 241 241 241 241 32 32 32 32 32 14 14 14 18
 18 18 18 21 21 22 151 151 151 151 151 81 81 221 221 221 221 241 241 39
 39 39 32 32 32 14 14 18 18 18 18 154 154 154 22 22 151 151 151 151
 81 221 221 221 221 221 221 39 39 39 39 39 39 39 54 54 44 44 44 154
 154 154 154 22 22 22 151 151 151 81 221 221 221 221 221 221 39 39 39 39
 39 39 54 54 54 54 44 44 154 154 154 154 22 22 22 22 151 118 75 221
 221 221 221 157 150 150 150 39 39 60 60 54 54 54 54 54 44 154 154 154
 154 22 22 22 22 118 118 118 118 75 75 157 157 150 150 234 234 60 60 60
 60 54 54 54 54 54 154 154 154 154 154 22 22 22 118 118 118 118 75 168
 157 157 150 150 234 234 60 60 60 60 54 54 54 54 154 154 154 154 154 25
 25 25 25 118 118 118 118 75 75 157 157 150 150 234 60 60 60 60 60 34
 34 54 236 236 236 236 236 25 25 25 25 25 237 237 237 89 89 89 157 157
 150 150 234 60 60 60 60 222 222 222 236 236 236 236 236 236 25 25 25 25
 25 237 237 237 89 89 89 89 157 8 8 8 8 8 222 222 222 222 222 101
 236 236 236 236 236 25 25 25 25 25 237 237 89 89 89 89 89 89 8 8
 8 8 8 8 222 222 222 101 101 101 236 236 236 236 25 25 25 25 25 237
 237 237 89 89 89 89 8 8 8 8 8 8 8 222 222 222 101 101 101 101
 236 236 236 25 25 25 25 25 237 237 237 89 89 89 89 8 8 8 8 8
 8 8 8 222 101 101 101 101 101 101 236 25 25 28 28 28 28 237 237 237
 89 89 89 198 8 8 8 8 8 8 8 8 222 101 101 101 101 101 101 101
 185 28 28 28 28 28 129 129 129 129 129 198 198 198 198 8 8 8 8 8
 105 105 105 101 101 101 101 101 185 185 28 28 28 28 28 129 129 129 129 198
 198 198 198 198 198 8 8 8 105 105 105 105 105 101 114 101 101 185 185 28
 184 184 184 129 129 129 129 129 27 198 198 198 198 198 198 8 105 105 105 105
 105 105 114 114 114 114 185 185 184 184 184 184 129 129 129 129 129 27 27 27
 198 198 198 198 198 105 105 105 105 105 105 114 114 114 114 31 184 184 184 184
 184 178 129 129 129 27 27 27 27 27 23 23 198 198 105 105 105 105 104 104