# vtk DataFile Version 2.0
Data set from ImportExport Version 6.5.171.b0b162591
ASCII

DATASET RECTILINEAR_GRID
DIMENSIONS 30 30 30
X_COORDINATES 30 float
-1.250000 1.250000 3.750000 6.250000 8.750000 11.250000 13.750000 16.250000 18.750000 21.250000 23.750000 26.250000 28.750000 31.250000 33.750000 36.250000 38.750000 41.250000 43.750000 46.250000 48.750000 
51.250000 53.750000 56.250000 58.750000 61.250000 63.750000 66.250000 68.750000 71.250000 
Y_COORDINATES 30 float
-1.250000 1.250000 3.750000 6.250000 8.750000 11.250000 13.750000 16.250000 18.750000 21.250000 23.750000 26.250000 28.750000 31.250000 33.750000 36.250000 38.750000 41.250000 43.750000 46.250000 48.750000 
51.250000 53.750000 56.250000 58.750000 61.250000 63.750000 66.250000 68.750000 71.250000 
Z_COORDINATES 30 float
-1.250000 1.250000 3.750000 6.250000 8.750000 11.250000 13.750000 16.250000 18.750000 21.250000 23.750000 26.250000 28.750000 31.250000 33.750000 36.250000 38.750000 41.250000 43.750000 46.250000 48.750000 
51.250000 53.750000 56.250000 58.750000 61.250000 63.750000 66.250000 68.750000 71.250000 
CELL_DATA 24389
SCALARS FeatureIds int 1
LOOKUP_TABLE default
 163 72 72 72 72 41 41 41 41 228 228 228 228 228 228 228 228 228 228 228
 228 161 161 161 161 161 161 161 161 72 72 72 72 72 72 41 41 41 228 228
 228 228 228 228 228 228 228 228 228 228 161 161 161 161 161 161 161 161 151 72
 72 72 72 72 72 66 66 228 228 228 228 228 228 228 228 228 228 228 228 161
 161 161 161 161 161 161 161 151 147 72 72 72 147 147 66 66 66 228 228 228
 228 228 228 228 228 228 228 228 161 161 161 161 161 161 161 161 151 147 147 147
 147 147 147 66 66 66 66 228 228 228 228 228 228 228 228 228 161 161 161 161
 161 161 161 161 151 151 147 147 147 147 147 147 66 66 66 66 228 228 228 228
 228 228 228 228 200 200 195 195 195 161 161 161 161 151 151 147 147 147 147 147
 112 112 66 66 66 66 228 228 228 228 228 228 200 200 200 195 195 195 161 161
 161 161 151 151 151 147 147 147 147 112 112 66 66 66 66 228 228 228 20 20
 20 200 200 200 200 195 195 161 161 161 151 151 230 230 230 147 147 147 112 112
 112 66 66 66 123 123 123 20 20 20 200 200 200 200 200 200 161 161 161 151
 151 230 230 230 36 36 147 112 112 112 66 123 123 123 123 123 123 20 20 200
 200 200 200 200 200 200 67 67 36 36 36 36 36 36 36 36 112 112 112 123
 123 123 123 123 123 123 20 20 200 200 200 200 200 187 67 67 67 36 36 36
 36 36 36 36 36 112 88 88 123 123 123 123 123 123 123 20 20 200 200 200
 200 200 187 67 67 67 67 36 36 36 36 36 36 36 36 73 5 5 123 123
 123 123 123 123 123 127 127 127 127 127 127 67 67 67 67 67 67 36 36 36
 36 36 36 73 73 5 5 5 5 123 123 123 123 127 127 127 127 127 127 127
 127 67 67 67 67 67 13 13 13 13 73 73 73 73 5 5 5 5 5 59
 59 59 59 127 127 127 127 127 127 67 67 67 67 67 67 13 13 13 13 73
 73 73 73 73 5 5 5 5 59 59 59 59 127 127 127 127 127 127 67 67
 67 67 67 67 13 13 13 50 50 73 73 73 73 5 5 5 5 59 59 89
 89 89 127 127 127 127 117 117 117 117 67 67 67 13 13 50 50 50 73 73
 73 73 73 5 220 220 89 89 89 89 89 89 89 231 231 117 117 117 117 117
 117 75 75 75 50 50 50 50 73 73 73 73 220 220 220 89 89 89 89 89
 89 89 231 231 117 117 117 117 117 117 75 75 75 50 50 50 50 201 201 201
 201 220 220 220 89 89 89 89 89 89 89 231 231 219 219 117 117 117 117 117
 75 186 50 50 50 50 201 201 201 201 220 220 220 138 89 89 89 89 89 89
 231 219 219 219 219 117 117 117 117 186 186 186 50 50 50 74 74 74 220 220
 220 138 138 138 89 89 9 9 9 219 219 219 219 219 117 117 117 117 186 186
 186 186 50 50 126 126 126 152 152 220 138 138 138 9 9 9 9 9 9 219
 219 219 219 219 117 117 186 186 186 186 186 186 126 126 126 126 152 152 152 138
 138 138 9 9 9 9 9 9 219 219 219 219 219 117 186 186 186 58 186 186
 186 126 126 126 126 152 152 143 143 143 143 9 9 9 9 9 9 219 219 219
 53 53 186 186 186 58 58 58 186 186 41 41 41 41 152 152 143 143 143 143
 143 9 9 9 9 9 53 53 53 53 53 53 186 186 186 58 186 186 186 41
 41 41 41 41 156 156 156 143 143 143 9 9 9 9 9 53 53 53 53 53
 186 186 186 186 186 186 186 186 41 41 41 41 41 41 156 156 156 156 156 9
 9 9 9 9 53 53 53 53 53 186 186 186 186 186 186 186 186 41 41 41
 41 41 41 156 156 156 156 156 156 9 9 9 9 53 53 53 53 53 186 186
 186 163 72 72 72 72 41 41 41 41 41 228 228 228 228 228 228 228 228 228
 228 228 161 161 161 161 161 161 161 163 72 72 72 72 72 41 41 41 41 228
 228 228 228 228 228 228 228 228 228 228 228 161 161 161 161 161 161 161 161 151
 151 72 72 72 72 41 66 228 228 228 228 228 228 228 228 228 228 228 228 141
 161 161 161 161 161 161 161 161 151 151 72 72 72 147 147 66 66 66 228 228
 228 228 228 228 228 228 228 228 141 161 161 161 161 161 161 161 151 151 151 147
 147 147 147 147 66 66 66 66 228 228 228 228 228 228 228 228 228 141 161 161
 161 161 161 161 161 151 151 151 147 147 147 147 147 66 66 66 66 228 228 228
 228 228 228 228 228 20 141 141 161 161 161 161 161 161 151 151 151 147 147 147
 147 147 66 66 66 66 66 228 228 228 228 228 20 20 20 20 141 161 161 161
 161 161 151 151 151 151 147 147 147 147 147 66 66 66 66 66 228 228 228 20
 20 20 20 20 20 20 20 161 161 161 161 151 151 151 151 147 147 147 147 112
 112 112 66 66 66 123 123 20 20 20 20 20 20 20 200 200 197 197 197 197
 151 151 36 36 36 36 147 147 112 112 112 66 123 123 123 123 123 20 20 20
 20 20 20 200 200 187 187 67 67 36 36 36 36 36 36 36 180 180 88 88
 88 123 123 123 123 123 123 20 20 20 20 20 200 187 187 187 67 67 36 36
 36 36 36 36 36 180 180 88 88 88 123 123 123 123 123 123 20 20 20 127
 127 127 187 187 67 67 67 67 36 36 36 36 36 36 180 180 215 88 5 123
 123 123 123 123 123 20 127 127 127 127 127 127 187 67 67 67 67 67 36 36
 36 36 36 215 215 215 215 5 5 5 5 123 123 123 123 127 127 127 127 127
 127 187 67 67 67 67 67 67 13 36 36 215 215 215 215 215 5 5 5 5
 59 59 59 59 127 127 127 127 127 127 127 67 67 67 67 67 13 13 13 13
 73 73 73 73 73 5 5 5 5 59 59 59 59 127 127 127 127 127 127 127
 67 67 67 67 67 13 13 13 50 50 73 73 73 73 5 5 5 5 59 59
 59 89 89 127 127 127 231 231 117 117 117 67 67 67 75 75 50 50 50 73
 73 73 73 73 220 220 220 59 89 89 89 89 89 231 231 231 231 117 117 117
 117 117 75 75 75 50 50 50 50 73 73 73 73 220 220 220 89 89 89 89
 89 89 231 231 231 231 117 117 117 117 117 75 75 75 50 50 50 50 201 201
 201 201 220 220 220 89 89 89 89 89 89 231 231 231 231 219 117 117 117 117
 75 75 75 50 50 50 50 201 201 201 220 220 220 220 138 89 89 89 89 89
 231 231 231 219 219 219 117 117 117 75 186 186 50 50 50 50 50 201 201 220
 220 220 138 138 138 89 89 9 9 11 11 219 219 219 219 117 117 117 75 186
 186 58 50 50 50 126 126 126 126 192 192 138 138 138 9 9 9 9 11 11
 219 219 219 219 219 117 117 186 58 58 58 58 50 126 126 126 126 126 152 192
 138 138 138 9 9 9 9 11 11 219 219 219 219 219 117 186 186 58 58 58
 58 58 126 126 126 126 126 152 143 143 143 143 9 9 9 9 11 11 53 53
 53 53 53 53 58 58 58 58 58 58 58 41 41 41 41 41 152 143 143 143
 143 9 9 9 9 11 11 53 53 53 53 53 53 58 58 58 58 58 58 58
 41 41 41 41 41 41 156 156 143 143 143 9 9 9 11 11 53 53 53 53
 53 53 58 58 58 58 58 58 41 41 41 41 41 41 41 156 156 156 156 156
 9 9 9 11 11 53 53 53 53 53 53 186 186 58 186 58 58 41 41 41
 41 41 41 41 156 156 156 156 156 156 9 9 11 11 53 53 53 53 53 53
 186 186 163 163 163 72 72 41 41 41 41 41 205 205 205 205 205 228 228 228
 228 228 141 141 161 161 161 161 161 161 163 163 163 72 72 72 41 41 41 41
 228 228 228 205 205 205 228 228 228 228 228 141 141 161 161 161 161 161 161 163
 151 151 72 72 72 72 41 66 66 228 228 228 228 228 228 228 228 228 228 141
 141 141 161 161 161 161 161 161 161 151 151 72 72 72 147 147 66 66 66 228
 228 228 228 228 228 228 228 228 141 141 141 161 161 161 161 161 161 151 151 151
 151 147 147 147 147 66 66 66 66 228 228 228 228 228 228 228 141 141 141 141
 161 161 161 161 161 161 151 151 151 151 147 147 147 147 66 66 66 66 228 228
 228 228 228 228 228 20 141 141 141 161 161 161 161 161 151 151 151 151 151 147
 147 147 147 66 66 66 66 228 228 228 228 228 20 20 20 20 141 141 141 161
 161 161 161 151 151 151 151 151 147 147 147 147 66 66 66 66 66 228 228 20
 20 20 20 20 20 20 20 216 197 197 197 197 151 151 151 151 151 147 147 147
 147 66 66 66 66 66 123 20 20 20 20 20 20 20 20 20 187 197 197 197
 197 151 151 36 36 36 36 147 180 180 88 88 88 88 123 123 123 123 20 20
 20 20 20 20 20 187 187 187 187 190 36 36 36 36 36 36 180 180 180 88
 88 88 123 123 123 123 123 20 20 20 20 20 20 20 187 187 187 187 190 36
 36 36 36 36 36 180 180 180 88 88 88 88 123 123 123 123 123 20 20 20
 20 20 187 187 187 187 187 67 67 36 36 36 36 36 180 180 180 215 88 88
 88 123 123 123 123 123 20 20 127 127 127 127 187 187 187 67 67 67 67 36
 36 36 36 180 215 215 215 215 5 5 5 5 123 123 123 20 127 127 127 127
 127 127 187 67 67 67 67 67 67 63 63 63 215 215 215 215 215 5 5 5
 5 59 59 59 59 127 127 127 127 127 127 187 67 67 67 67 67 63 63 63
 50 215 215 215 215 215 5 5 5 5 59 59 59 59 127 127 127 127 3 3
 3 117 67 67 67 67 63 63 50 50 50 50 73 73 73 73 5 5 5 59
 59 59 89 89 127 127 231 231 231 231 117 117 67 67 75 75 75 50 50 50
 50 73 73 73 73 220 220 220 59 89 89 89 89 134 231 231 231 231 231 117
 117 117 75 75 75 75 50 50 50 50 50 73 73 220 220 220 220 89 89 89
 89 89 134 231 231 231 231 231 117 117 117 75 75 75 75 50 50 50 50 50
 201 201 220 220 220 220 89 89 89 89 89 89 231 231 231 231 231 117 117 117
 75 75 75 75 50 50 50 50 50 201 201 220 220 220 192 192 89 89 89 89
 89 231 231 231 231 219 219 117 117 75 75 75 75 50 50 26 26 26 50 201
 220 220 192 192 192 192 89 89 89 11 11 11 231 219 219 219 117 117 75 75
 58 58 50 50 26 26 26 126 126 126 192 192 192 192 192 192 9 9 11 11
 11 11 219 219 219 219 117 75 75 58 58 58 50 26 26 126 126 126 126 192
 192 192 192 192 9 9 9 11 11 11 11 53 53 53 53 53 186 186 58 58
 58 58 16 126 126 126 126 126 192 192 192 192 192 9 9 9 11 11 11 53
 53 53 53 53 53 58 58 58 58 58 58 58 41 41 41 41 41 192 192 192
 192 192 9 9 9 11 11 11 53 53 53 53 53 53 58 58 58 58 58 58
 58 41 41 41 41 41 41 156 156 143 143 9 9 9 11 11 11 53 53 53
 53 53 53 58 58 58 58 58 58 41 41 41 41 41 41 41 205 205 205 205
 205 9 9 11 11 11 53 53 53 53 53 53 186 186 163 58 58 58 41 41
 41 41 41 41 41 205 205 205 205 205 205 213 11 11 11 53 53 53 53 53
 53 163 163 163 163 163 163 163 10 10 10 10 10 205 205 205 205 205 205 205
 205 205 141 141 141 233 161 161 161 161 163 163 163 163 163 163 163 163 10 10
 10 228 228 205 205 205 205 205 228 228 228 141 141 141 161 161 161 161 161 163
 163 163 163 163 72 72 72 10 10 66 228 228 228 205 205 205 228 228 228 141
 141 141 141 141 161 161 161 161 161 163 151 151 151 151 147 147 147 66 66 66
 228 228 228 228 228 228 228 228 141 141 141 141 141 161 161 161 161 161 151 151
 151 151 151 147 147 147 66 66 66 228 228 228 228 228 228 228 228 141 141 141
 141 141 161 161 161 161 151 151 151 151 151 151 147 147 147 66 66 66 66 228
 228 228 228 228 228 141 141 141 141 141 141 161 161 161 161 151 151 151 151 151
 151 147 147 147 66 66 66 66 228 228 228 228 228 20 20 20 141 141 141 141
 197 197 197 197 151 151 151 151 151 151 147 147 147 66 66 66 66 228 228 228
 20 20 20 20 20 20 20 141 216 197 197 197 197 151 151 151 151 151 151 147
 180 180 88 88 88 88 82 82 20 20 20 20 20 20 20 20 20 187 197 197
 197 197 151 151 36 36 36 180 180 180 180 88 88 88 88 88 123 123 20 20
 20 20 20 20 20 187 187 187 187 187 190 190 190 36 36 36 180 180 180 180
 88 88 88 88 88 123 123 123 20 20 20 20 20 20 187 187 187 187 187 190
 190 190 36 36 36 180 180 180 180 88 88 88 88 88 123 123 123 20 20 20
 20 20 20 187 187 187 187 187 190 190 190 36 36 36 180 180 180 180 88 88
 88 88 199 123 123 123 123 20 20 20 127 127 187 187 187 187 187 190 190 190
 63 63 63 180 180 180 215 215 215 199 199 199 123 123 123 123 20 127 127 127
 127 187 187 187 187 187 67 67 67 63 63 63 63 180 215 215 215 215 215 199
 5 5 59 59 59 59 127 127 127 127 3 3 187 187 187 67 67 63 63 63
 63 63 63 215 215 215 215 215 5 5 59 59 59 59 59 134 127 127 3 3
 3 3 159 159 159 63 63 63 63 63 50 50 50 215 215 215 215 5 5 59
 59 59 59 134 134 134 134 3 3 3 3 159 159 159 63 63 75 75 50 50
 50 50 50 73 73 73 220 220 220 59 89 89 134 134 134 134 231 231 231 231
 117 159 159 75 75 75 75 50 50 50 50 50 50 50 220 220 220 220 192 89
 89 134 134 134 231 231 231 231 231 117 117 117 75 75 75 75 50 50 50 50
 50 50 201 220 220 220 192 192 192 89 134 134 134 231 231 231 231 231 117 117
 117 75 75 75 75 50 50 50 50 50 50 50 220 220 192 192 192 192 192 89
 134 134 231 231 231 231 231 117 117 117 75 75 75 75 19 50 26 26 26 50
 50 220 192 192 192 192 192 192 89 134 11 11 11 120 120 120 219 117 117 75
 75 75 16 16 16 26 26 26 26 126 192 192 192 192 192 192 192 9 11 11
 11 11 11 120 120 219 53 117 75 75 58 16 16 16 16 26 26 126 126 126
 192 192 192 192 192 192 9 11 11 11 11 11 53 53 53 53 53 53 75 58
 58 16 16 16 16 126 126 126 126 192 192 192 192 192 192 9 11 11 11 11
 53 53 53 53 53 53 53 58 58 58 58 16 16 16 10 10 10 10 10 192
 192 192 192 213 9 11 11 11 11 53 53 53 53 53 53 58 58 58 58 58
 16 16 10 10 10 10 10 10 10 213 213 213 213 213 11 11 11 11 53 53
 53 53 53 53 53 58 163 58 163 163 10 10 10 10 10 10 10 205 205 205
 205 213 213 213 11 11 11 53 53 53 53 53 53 53 163 163 163 163 163 10
 10 10 10 10 10 10 205 205 205 205 205 213 213 213 11 11 53 53 53 53
 53 53 163 163 163 163 163 163 163 10 10 10 10 10 10 205 205 205 205 213
 213 213 213 141 141 141 233 233 111 111 111 111 163 163 163 163 163 163 10 10
 10 10 10 205 205 205 205 205 205 228 228 141 141 141 141 233 233 161 111 111
 111 163 163 163 163 163 163 163 149 149 149 228 228 228 205 205 205 228 228 228
 141 141 141 141 141 161 161 202 202 202 163 151 151 151 151 151 147 149 149 149
 66 228 228 228 228 228 228 228 228 141 141 141 141 141 141 161 202 202 202 151
 151 151 151 151 151 147 149 149 66 66 228 228 228 228 228 228 228 141 141 141
 141 141 141 141 161 202 202 202 151 151 151 151 151 151 147 149 149 149 66 228
 228 228 228 228 228 228 141 141 141 141 141 141 197 197 197 197 151 151 151 151
 151 151 151 147 149 149 66 66 82 82 82 82 82 82 20 20 141 141 141 141
 141 197 197 197 197 151 151 151 151 151 151 151 180 149 149 88 88 82 82 82
 82 82 20 20 20 20 20 141 141 216 197 197 197 197 197 151 151 151 151 151
 180 180 180 88 88 88 88 82 82 82 82 20 20 20 20 20 20 141 216 197
 197 197 197 197 151 151 151 151 180 180 180 180 88 88 88 88 88 82 82 20
 20 20 20 20 20 20 187 187 187 187 197 190 190 190 190 36 36 180 180 180
 180 88 88 88 88 88 123 123 20 20 20 20 20 20 20 187 187 187 187 187
 190 190 190 190 36 36 180 180 180 180 88 88 88 88 88 88 123 20 20 20
 20 20 20 218 187 187 187 187 187 190 190 190 190 63 63 180 180 180 180 88
 88 88 199 199 199 123 123 20 20 20 20 218 218 187 187 187 187 187 190 190
 190 63 63 63 180 180 180 180 199 199 199 199 199 199 123 123 20 20 20 127
 218 127 187 187 187 187 187 190 190 190 63 63 63 63 180 215 215 215 199 199
 199 199 199 59 59 59 20 20 127 127 3 3 3 187 187 187 190 63 63 63
 63 63 63 63 215 215 215 215 199 199 199 199 59 59 59 134 134 134 3 3
 3 3 3 159 159 159 63 63 63 63 63 63 50 50 215 215 215 199 199 199
 199 59 59 134 134 134 134 134 3 3 3 3 159 159 159 63 63 75 63 63
 50 50 50 50 50 215 73 220 220 31 192 134 134 134 134 134 134 231 3 3
 3 159 159 159 75 75 75 75 50 50 50 50 50 50 50 220 220 220 192 192
 134 134 134 134 134 134 231 231 231 231 159 159 159 75 75 75 75 50 50 50
 50 50 50 50 220 220 192 192 192 192 134 134 134 134 134 231 231 231 231 159
 159 75 75 75 75 75 19 19 50 50 50 50 50 220 192 192 192 192 192 134
 134 134 134 134 231 231 120 120 120 117 75 75 75 75 19 19 19 19 26 26
 50 50 50 192 192 192 192 192 192 134 134 134 11 120 120 120 120 120 120 75
 75 75 75 16 16 16 16 26 26 50 50 192 192 192 192 192 192 192 134 11
 11 11 11 120 120 120 120 120 75 75 75 16 16 16 16 16 16 26 126 126
 192 192 192 192 192 192 192 9 11 11 11 11 11 53 53 53 53 53 75 75
 16 16 16 16 16 16 26 10 10 113 113 192 192 192 192 192 9 11 11 11
 11 11 53 53 53 53 53 53 58 16 16 16 16 16 16 10 10 10 10 113
 192 192 213 213 213 213 11 11 11 11 53 53 53 53 53 53 53 58 163 58
 16 16 16 10 10 10 10 10 10 10 213 213 213 213 213 213 11 11 11 53
 53 53 53 53 53 53 163 163 163 163 163 16 10 10 10 10 10 10 10 213
 213 213 213 213 213 213 11 11 53 53 53 53 53 53 163 163 163 163 163 163
 163 10 10 10 10 10 10 205 205 213 213 213 213 213 213 11 116 53 53 53
 53 53 111 163 163 163 163 163 163 163 10 10 10 10 10 10 205 205 205 213
 213 213 213 213 213 141 233 233 233 111 111 111 111 163 163 163 163 163 163 10
 10 10 10 10 103 205 205 205 205 205 213 213 213 141 141 141 233 233 233 111
 111 111 163 163 163 163 163 163 149 149 149 149 103 103 103 103 205 205 228 228
 141 141 141 141 141 141 233 202 202 202 202 163 163 163 163 163 163 149 149 149
 149 103 103 103 103 228 228 228 228 141 141 141 141 141 141 141 202 202 202 202
 202 151 151 151 151 151 149 149 149 149 149 103 103 85 85 85 85 141 141 141
 141 141 141 141 216 202 202 202 202 202 151 151 151 151 151 149 149 149 149 149
 82 82 85 85 85 82 82 141 141 141 141 141 141 216 197 197 202 202 151 151
 151 151 151 151 149 149 149 149 149 82 82 82 82 82 82 82 141 141 141 141
 141 216 216 197 197 197 197 151 151 151 151 151 151 149 149 149 149 149 82 82
 82 82 82 82 20 20 20 141 141 216 216 216 197 197 197 197 151 151 151 151
 151 180 180 44 44 44 88 88 82 82 82 82 82 20 20 20 20 20 216 216
 216 197 197 197 197 151 190 151 131 131 180 180 180 44 88 88 88 88 82 82
 82 20 20 20 20 20 218 187 187 187 187 197 190 190 190 190 131 131 131 180
 180 180 88 88 88 88 88 88 82 20 20 20 20 20 218 218 187 187 187 187
 187 190 190 190 190 131 131 131 180 180 180 88 88 23 88 88 88 88 20 20
 20 20 218 218 218 187 187 187 187 187 190 190 190 190 63 131 180 180 180 180
 199 199 199 199 199 199 199 20 20 20 20 218 218 218 187 187 187 187 187 190
 190 190 63 63 63 63 180 180 180 199 199 199 199 199 199 199 199 20 20 218
 218 218 218 187 187 187 187 187 190 190 190 63 63 63 63 180 180 215 199 199
 199 199 199 199 199 31 94 134 218 218 218 3 3 3 187 187 187 190 63 63
 63 63 63 63 63 215 215 215 199 199 199 199 199 31 31 134 134 134 134 3
 3 3 3 3 159 159 159 63 63 63 63 63 63 55 55 215 215 199 199 199
 199 31 31 31 134 134 134 134 134 3 3 3 3 159 159 159 159 63 63 63
 63 50 50 50 50 50 215 199 222 222 31 31 31 134 134 134 134 134 3 3
 3 3 159 159 159 159 63 75 75 50 50 50 50 50 50 50 222 222 222 31
 31 31 134 134 134 134 134 231 231 231 159 159 159 159 75 75 75 75 19 50
 50 50 50 50 50 222 222 83 83 192 134 134 134 134 134 134 231 120 120 120
 159 159 159 75 75 75 75 19 19 19 50 50 50 50 50 83 83 192 192 192
 134 134 134 134 134 120 120 120 120 120 159 159 75 75 75 19 19 19 19 50
 50 50 50 50 192 192 192 192 192 134 134 134 134 134 120 120 120 120 120 120
 75 75 75 75 16 16 16 16 19 50 50 50 192 192 192 192 192 192 192 134
 134 11 11 120 120 120 120 120 120 120 75 75 16 16 16 16 16 16 26 10
 113 113 113 192 192 192 192 192 134 11 11 11 11 120 120 120 120 120 120 75
 75 16 16 16 16 16 16 10 10 113 113 113 113 192 192 192 213 213 11 11
 11 11 11 53 53 53 53 53 53 150 150 16 16 16 16 10 10 10 10 113
 113 113 40 213 213 213 213 213 11 11 11 53 53 53 53 53 53 53 150 163
 163 16 16 16 10 10 10 10 10 113 113 40 213 213 213 213 213 11 11 11
 53 53 53 53 53 53 111 111 163 163 163 163 16 10 10 10 10 10 113 40
 40 213 213 213 213 213 213 116 116 116 53 53 53 53 111 111 111 163 163 163
 163 163 10 10 10 10 10 10 40 40 213 213 213 213 213 213 116 116 116 53
 53 53 111 111 111 111 163 163 163 163 163 10 10 10 10 10 10 40 40 40
 213 213 213 213 213 141 233 233 233 233 233 111 111 111 111 163 163 163 163 163
 10 10 10 10 103 103 103 103 103 142 142 142 142 141 141 141 233 233 233 233
 111 111 111 111 163 163 163 163 163 149 149 149 149 103 103 103 103 103 142 142
 142 142 141 141 141 141 233 233 233 111 202 111 111 202 163 163 163 163 149 149
 149 149 103 103 103 103 85 85 85 142 141 141 141 141 141 141 233 202 202 202
 202 202 202 151 151 151 149 149 149 149 149 149 103 103 85 85 85 85 85 141
 141 141 141 141 141 216 209 209 202 202 202 151 151 151 151 149 149 149 149 149
 149 103 85 85 85 85 85 82 141 141 141 141 141 141 216 209 209 209 202 202
 151 151 151 151 149 149 149 149 149 149 82 82 82 82 82 82 82 141 141 141
 141 141 216 216 216 197 197 202 202 151 151 151 151 149 149 149 149 149 149 82
 82 82 82 82 82 82 141 141 141 141 216 216 216 216 197 197 197 151 151 151
 131 131 180 44 44 44 44 44 82 82 82 82 82 82 82 20 20 218 216 216
 216 216 216 197 197 197 197 190 131 131 131 180 180 44 44 44 88 88 82 82
 82 82 82 20 20 218 218 218 216 216 187 187 197 190 190 190 190 131 131 131
 180 180 180 44 88 88 88 88 82 82 82 82 20 218 218 218 218 187 187 187
 187 187 190 190 190 190 131 131 131 180 180 180 180 88 88 88 88 88 82 82
 20 20 218 218 218 218 187 187 187 187 187 190 190 190 190 131 131 131 180 180
 180 199 199 88 88 88 199 199 94 94 218 218 218 218 218 187 187 187 187 187
 190 190 190 63 63 63 131 180 180 180 199 199 199 199 199 199 199 94 94 94
 218 218 218 218 218 187 187 187 187 190 190 190 63 63 63 63 180 180 199 199
 199 199 199 199 199 31 31 94 237 218 218 218 3 3 3 187 187 187 190 190
 63 63 63 63 63 55 55 55 199 199 199 199 199 31 31 31 31 134 134 134
 218 3 3 3 3 159 159 159 63 63 63 63 63 63 55 55 55 55 199 199
 199 31 31 31 31 31 134 134 134 3 3 3 3 3 159 159 159 159 63 63
 63 63 55 55 55 55 55 199 222 222 222 31 31 31 31 134 134 134 134 3
 3 3 3 159 159 159 159 63 75 63 63 55 55 55 55 55 222 222 222 222
 31 31 31 134 134 134 134 134 134 231 231 159 159 159 159 75 75 75 75 19
 19 50 50 50 50 50 222 222 83 83 31 31 134 134 134 134 134 120 120 120
 120 159 159 159 75 75 75 19 19 19 19 50 50 50 50 222 83 83 83 83
 134 134 134 134 134 134 120 120 120 120 120 159 159 75 75 75 19 19 19 19
 19 50 50 50 222 83 83 83 192 192 134 134 134 134 120 120 120 120 120 120
 120 120 75 75 129 16 16 16 16 16 50 50 113 113 83 192 192 192 192 192
 134 134 134 120 120 120 120 120 120 120 120 129 129 129 16 16 16 16 16 16
 113 113 113 113 113 192 192 192 192 134 134 11 11 11 120 120 120 120 120 120
 129 129 150 150 16 16 16 16 16 113 113 113 113 113 113 40 40 213 213 11
 11 11 11 116 53 53 53 53 53 150 150 150 150 16 16 16 10 10 10 113
 113 113 113 40 40 40 213 213 213 116 116 116 116 53 53 53 53 53 150 150
 150 150 150 16 16 10 10 10 10 113 113 113 40 40 40 213 213 213 116 116
 116 116 116 53 53 53 111 111 111 163 163 163 163 10 10 10 10 10 10 113
 40 40 40 40 213 213 213 116 116 116 116 116 53 53 111 111 111 111 163 163
 163 163 163 10 10 10 10 10 113 40 40 40 40 213 213 213 213 116 116 116
 116 233 111 111 111 111 111 111 163 163 163 163 10 10 10 10 10 103 40 40
 40 142 142 142 142 142 142 116 233 233 233 233 111 111 111 111 111 163 163 163
 163 10 10 10 10 103 103 103 103 142 142 142 142 142 142 141 233 233 233 233
 233 111 111 111 111 111 163 163 163 163 149 149 149 149 103 103 103 103 103 142
 142 142 142 142 141 141 233 233 233 233 111 111 111 111 202 163 163 163 149 149
 149 149 149 103 103 103 103 34 85 142 142 142 141 141 141 141 141 233 202 202
 202 202 202 202 202 151 149 149 149 149 149 149 149 103 103 85 34 85 85 142
 141 141 141 141 141 141 209 209 209 202 202 202 202 202 151 151 149 149 149 149
 149 149 103 85 85 34 85 85 82 141 141 141 141 141 216 216 209 209 209 202
 202 151 151 151 149 149 149 149 149 149 149 82 82 82 82 82 82 82 141 141
 141 141 216 216 216 216 209 209 202 202 151 151 49 49 149 149 149 149 149 149
 82 82 82 30 82 82 82 82 141 141 141 216 216 216 216 216 197 197 202 239
 239 131 131 44 44 44 44 44 44 82 82 82 82 82 82 82 218 218 218 216
 216 216 216 216 216 197 197 197 239 239 131 131 131 44 44 44 44 44 88 82
 82 82 82 82 82 218 218 218 218 216 216 216 216 216 190 190 190 239 239 131
 131 131 180 44 44 44 88 88 88 82 82 82 82 20 218 218 218 218 218 187
 187 187 187 190 190 190 239 239 131 131 131 180 180 44 88 88 88 88 82 82
 94 94 94 218 218 218 218 218 187 187 187 187 190 190 190 121 239 131 131 131
 180 180 199 88 88 88 88 88 94 94 94 94 218 218 218 218 218 187 187 187
 187 190 190 190 121 121 121 131 131 180 180 199 199 199 88 88 88 94 94 94
 94 218 218 218 218 218 187 187 187 187 190 190 121 121 121 63 63 131 180 199
 199 199 199 199 199 31 94 94 94 237 237 218 218 218 218 3 187 187 187 190
 190 63 63 63 63 63 55 55 55 55 199 199 199 31 31 31 31 237 237 237
 218 218 3 3 3 3 159 159 159 63 63 63 63 63 63 55 55 55 55 199
 199 199 31 31 31 31 31 237 237 128 166 166 3 3 3 159 159 159 63 63
 63 63 63 55 55 55 55 55 55 83 83 83 31 31 31 31 128 128 128 128
 166 166 166 3 159 159 159 159 63 75 63 63 55 55 55 55 55 55 83 83
 83 31 31 31 31 128 128 128 128 166 166 166 166 159 159 159 75 75 75 75
 55 55 55 55 55 55 83 83 83 83 83 31 31 128 128 128 128 128 120 120
 120 120 120 159 159 75 75 129 129 129 19 19 50 50 50 222 222 222 83 83
 83 134 134 128 128 128 128 120 120 120 120 120 159 159 75 75 129 129 129 19
 19 19 50 50 222 222 222 83 83 83 192 134 128 128 128 128 120 120 120 120
 120 120 129 129 129 129 129 129 16 16 16 50 113 113 113 222 83 192 192 192
 134 134 134 128 120 120 120 120 120 120 120 129 129 129 129 129 129 16 16 16
 16 113 113 113 113 113 192 192 192 134 134 134 11 11 11 120 120 48 48 48
 129 129 129 150 150 150 16 16 16 113 113 113 113 113 113 113 40 40 40 4
 4 116 116 116 116 48 48 48 48 150 150 150 150 150 150 150 16 10 10 113
 113 113 113 113 40 40 40 40 4 4 116 116 116 116 48 48 48 48 48 150
 150 150 150 150 150 150 10 10 10 113 113 113 113 40 40 40 40 4 4 116
 116 116 116 116 48 48 111 111 150 150 150 150 150 150 10 10 10 10 10 113
 113 40 40 40 40 40 4 4 116 116 116 116 116 48 111 111 111 111 111 111
 163 163 163 10 10 10 10 10 10 113 40 40 40 40 40 4 4 4 116 116
 116 116 233 233 111 111 111 111 111 111 163 163 163 10 10 10 10 10 103 40
 40 142 142 142 142 142 4 4 116 116 233 233 233 111 111 111 111 111 111 163
 163 163 149 10 149 10 103 103 103 103 142 142 142 142 142 142 142 116 233 233
 233 233 111 111 111 111 202 202 163 163 163 149 149 149 149 103 103 103 103 142
 142 142 142 142 142 142 141 233 233 233 233 111 111 202 202 202 202 163 163 149
 149 149 149 149 103 103 103 103 85 142 142 142 142 142 141 141 141 178 233 202
 202 202 202 202 202 202 202 149 149 149 149 149 149 149 103 103 85 85 85 85
 142 142 141 141 141 178 178 209 209 209 202 202 202 202 202 49 49 149 149 149
 149 149 149 103 85 85 85 85 85 82 82 141 141 141 178 216 216 209 209 209
 202 202 202 49 49 49 49 149 149 149 149 149 82 82 82 82 82 82 82 82
 141 141 141 216 216 216 216 209 209 202 202 49 49 49 49 49 49 149 149 149
 149 82 82 82 82 82 82 82 82 141 141 216 216 216 216 216 216 216 202 202
 239 49 49 49 49 44 44 44 44 44 82 82 82 82 82 82 82 82 92 92
 92 216 216 216 216 216 216 6 239 239 239 131 131 131 44 44 44 44 44 82
 82 82 82 82 82 82 218 92 92 92 216 216 216 216 216 216 6 239 239 239
 131 131 131 44 44 44 44 44 88 82 82 82 82 82 218 218 218 218 218 218
 216 216 216 187 6 6 239 239 239 239 131 131 131 44 44 44 88 88 88 82
 94 94 94 94 218 218 218 218 218 187 187 187 187 6 6 239 121 121 131 131
 131 131 180 199 88 88 88 88 94 94 94 94 94 218 218 218 218 218 187 187
 187 187 6 6 121 121 121 121 131 131 131 180 199 199 199 88 88 94 94 94
 94 94 94 218 218 218 218 187 187 187 187 6 6 121 121 121 121 121 131 55
 55 199 199 199 199 199 237 237 237 94 237 237 218 218 218 218 166 187 187 187
 6 121 121 121 121 121 121 55 55 55 55 199 199 199 31 31 31 237 237 237
 237 237 218 166 166 166 166 166 159 159 63 63 63 63 63 55 55 55 55 55
 55 164 31 31 31 31 31 237 237 237 237 166 166 166 166 166 166 159 159 63
 63 63 63 63 55 55 55 55 55 55 164 164 164 31 31 31 237 128 128 128
 166 166 166 166 166 166 159 159 159 63 221 221 55 55 55 55 55 55 164 164
 164 164 164 31 31 128 128 128 128 166 166 166 166 166 166 159 159 75 75 129
 129 129 55 55 55 55 55 164 164 164 164 164 164 31 128 128 128 128 128 166
 166 166 166 166 159 159 75 75 129 129 129 129 55 55 55 55 164 164 164 164
 164 164 31 128 128 128 128 128 120 120 120 120 120 159 129 129 129 129 129 129
 129 129 129 50 164 164 164 164 164 164 164 164 128 128 128 128 128 120 120 120
 120 120 120 129 129 129 129 129 129 129 129 129 129 113 113 164 164 164 164 164
 164 128 128 128 128 68 120 120 120 120 120 120 129 129 129 129 129 129 129 129
 129 113 113 113 113 113 113 113 164 40 68 68 68 68 116 116 116 48 48 48
 48 129 129 129 150 150 150 150 150 150 113 113 113 113 113 113 113 40 40 4
 4 4 116 116 116 116 48 48 48 48 129 129 129 150 150 150 150 150 150 10
 113 113 113 113 113 40 40 40 4 4 4 116 116 116 116 48 48 48 48 48
 150 150 150 150 150 150 150 10 10 113 113 113 113 113 40 40 40 4 4 4
 4 116 116 116 48 48 48 48 150 150 150 150 150 150 150 150 10 10 113 113
 113 113 40 40 40 40 4 4 4 4 116 116 116 116 48 48 111 111 111 150
 111 150 150 150 150 10 10 10 10 113 113 40 40 40 40 142 4 4 4 116
 116 116 116 233 111 111 111 111 111 111 111 163 163 163 10 10 10 10 10 103
 142 142 142 142 142 142 142 4 4 116 116 233 233 233 111 111 111 111 111 111
 163 163 163 185 185 149 185 103 103 103 142 142 142 142 142 142 142 142 116 233
 233 233 233 111 111 111 111 202 202 163 163 139 185 185 149 185 103 103 103 103
 142 142 142 142 142 142 142 178 178 178 233 233 111 111 202 202 202 202 163 139
 139 185 185 185 185 103 103 103 103 142 142 142 142 142 142 178 178 178 178 178
 236 236 202 202 202 202 202 49 139 139 185 185 185 185 185 103 103 85 85 85
 142 142 142 178 178 178 178 178 178 236 236 202 202 202 202 49 49 49 49 139
 185 185 185 185 103 82 85 85 85 82 82 82 178 178 178 178 178 178 236 236
 236 202 202 49 49 49 49 49 49 185 185 185 185 82 82 82 82 82 82 82
 82 178 178 178 178 178 216 216 236 236 202 202 49 49 49 49 49 49 185 185
 185 185 82 82 82 82 82 82 82 82 92 178 178 178 216 216 216 216 216 202
 202 49 49 49 49 49 49 44 44 44 44 82 82 82 82 82 82 82 82 92
 92 92 216 216 216 216 216 216 6 6 239 239 49 49 49 44 44 44 44 44
 82 82 82 82 82 82 82 218 92 92 92 216 216 216 216 216 6 6 6 239
 239 239 131 131 196 44 44 44 44 82 82 82 82 82 94 94 218 92 92 92
 218 216 216 216 6 6 6 239 239 239 239 131 131 196 196 44 44 88 88 188
 188 188 94 94 94 218 218 218 218 218 80 187 187 6 6 6 239 121 121 239
 131 131 196 196 196 196 88 88 188 188 188 94 94 94 94 218 218 218 218 80
 187 6 6 6 6 6 121 121 121 121 131 196 196 196 199 133 133 188 188 188
 94 94 94 94 218 218 218 218 80 187 6 6 6 6 121 121 121 121 121 131