# vtk DataFile Version 2.0
Data set from ImportExport Version 6.5.171.b0b162591
ASCII

DATASET RECTILINEAR_GRID
DIMENSIONS 30 30 30
X_COORDINATES 30 float
-1.250000 1.250000 3.750000 6.250000 8.750000 11.250000 13.750000 16.250000 18.750000 21.250000 23.750000 26.250000 28.750000 31.250000 33.750000 36.250000 38.750000 41.250000 43.750000 46.250000 48.750000 
51.250000 53.750000 56.250000 58.750000 61.250000 63.750000 66.250000 68.750000 71.250000 
Y_COORDINATES 30 float
-1.250000 1.250000 3.750000 6.250000 8.750000 11.250000 13.750000 16.250000 18.750000 21.250000 23.750000 26.250000 28.750000 31.250000 33.750000 36.250000 38.750000 41.250000 43.750000 46.250000 48.750000 
51.250000 53.750000 56.250000 58.750000 61.250000 63.750000 66.250000 68.750000 71.250000 
Z_COORDINATES 30 float
-1.250000 1.250000 3.750000 6.250000 8.750000 11.250000 13.750000 16.250000 18.750000 21.250000 23.750000 26.250000 28.750000 31.250000 33.750000 36.250000 38.750000 41.250000 43.750000 46.250000 48.750000 
51.250000 53.750000 56.250000 58.750000 61.250000 63.750000 66.250000 68.750000 71.250000 
CELL_DATA 24389
SCALARS FeatureIds int 1
LOOKUP_TABLE default
 29 29 29 29 41 41 41 41 41 210 210 210 210 210 210 37 37 37 37 37
 37 37 187 187 187 187 29 29 29 29 29 29 29 133 133 133 133 133 210 210
 210 210 210 210 37 37 37 37 37 37 37 187 187 187 187 29 29 29 29 29
 29 133 133 133 133 133 133 133 210 210 210 210 210 37 37 37 37 37 37 37
 187 187 187 187 29 29 29 29 29 29 133 133 133 133 133 133 133 210 210 210
 210 37 37 37 37 37 37 37 37 187 187 187 187 29 29 29 166 166 97 97
 97 133 133 133 133 133 133 210 96 96 96 37 37 37 37 37 37 37 67 67
 67 67 29 29 29 166 166 97 97 97 97 97 133 133 133 133 96 96 96 96
 96 37 37 37 37 37 37 67 67 67 67 67 29 166 166 166 166 97 97 97
 97 31 31 31 96 96 96 96 96 96 96 37 37 37 37 67 67 67 67 67
 67 166 166 166 166 166 97 97 97 97 31 31 31 96 96 96 96 96 96 96
 96 37 37 37 67 67 67 67 67 67 166 166 166 166 166 97 97 97 97 31
 31 31 96 96 96 96 96 96 96 96 96 37 37 67 67 67 67 67 218 166
 166 166 166 97 97 97 97 97 199 199 199 96 96 96 96 96 96 96 96 96
 103 103 103 118 118 118 118 218 218 218 166 166 97 97 97 199 199 199 199 199
 96 96 96 96 96 96 96 96 96 103 103 103 118 118 118 118 179 179 218 136
 136 136 136 136 199 199 199 199 199 199 96 96 96 96 96 96 96 103 103 103
 103 118 118 118 118 179 179 179 136 136 136 136 136 199 199 199 199 199 199 92
 96 96 96 96 27 27 103 103 103 103 118 118 118 118 179 179 179 179 136 136
 136 136 136 199 199 199 199 92 92 92 92 92 27 27 12 103 103 103 103 103
 118 118 105 179 179 179 179 251 136 136 136 136 80 80 225 225 225 92 92 92
 92 12 12 12 12 103 103 103 103 118 105 105 179 179 179 251 251 251 136 136
 80 80 80 225 225 225 92 92 92 12 12 12 228 228 103 103 103 103 105 105
 105 179 179 179 251 251 251 251 136 80 80 80 80 225 225 16 16 16 228 228
 228 228 228 228 103 68 68 68 105 105 179 179 179 179 251 251 251 136 80 80
 80 80 16 16 16 16 16 228 228 228 228 228 228 115 115 68 68 68 203 179
 179 179 179 251 104 104 104 104 80 80 16 16 16 16 16 16 62 62 62 62
 62 183 115 115 115 68 203 203 203 203 179 112 104 104 104 104 104 104 80 16
 16 16 16 168 168 168 62 62 62 62 183 115 115 115 203 203 203 203 203 203
 112 112 104 104 104 104 104 104 168 168 168 168 168 168 168 62 62 62 62 183
 115 115 115 115 203 203 203 203 203 112 112 104 104 104 104 104 130 168 168 168
 168 168 168 169 169 43 43 43 183 115 115 115 189 189 189 189 195 195 112 104
 104 104 104 104 104 130 130 168 168 168 168 168 169 169 169 169 43 43 115 115
 115 189 189 189 189 195 195 154 154 154 104 104 104 130 130 130 130 130 168 168
 169 169 169 169 169 169 169 13 13 13 151 189 189 195 195 195 154 154 154 154
 104 104 130 130 130 130 130 130 169 169 169 169 169 169 169 209 209 209 209 151
 189 189 195 154 154 154 154 154 154 154 9 9 130 130 130 130 130 130 169 169
 164 169 169 169 209 209 209 209 209 209 189 154 154 154 154 154 154 154 114 114
 41 41 130 130 130 130 130 169 164 164 164 169 169 209 209 209 209 209 209 189
 154 154 154 154 154 154 114 114 114 41 41 41 41 210 210 210 169 164 164 164
 169 37 37 209 209 209 187 187 187 154 154 154 154 154 154 114 114 114 41 41
 41 41 210 210 210 210 164 164 164 37 37 37 37 209 187 187 187 187 29 29
 154 188 188 188 41 41 41 41 41 41 41 210 210 210 210 91 91 37 37 37
 37 37 37 187 187 187 187 29 29 29 29 29 29 41 41 41 41 41 41 41
 210 210 210 210 210 37 37 37 37 37 37 37 187 187 187 187 29 29 29 29
 29 29 97 97 133 133 133 133 133 210 210 210 210 210 37 37 37 37 37 37
 37 187 187 187 187 29 29 29 29 166 97 97 97 133 133 133 133 133 210 210
 210 96 96 37 37 37 37 37 37 37 67 67 67 67 29 29 29 166 166 97
 97 97 97 133 133 133 133 56 56 96 96 96 37 37 37 37 37 37 67 67
 67 67 67 67 29 29 166 166 97 97 97 97 97 31 31 31 56 56 96 96
 96 96 20 20 20 20 37 67 67 67 67 67 67 166 166 166 166 166 97 97
 97 31 31 31 31 31 96 96 96 96 96 96 20 20 20 20 67 67 67 67
 67 67 166 166 166 166 166 97 97 97 31 31 31 31 96 96 96 96 96 96
 96 20 20 20 20 67 67 67 67 67 67 166 166 166 166 166 97 97 97 97
 31 31 31 96 96 96 96 96 96 96 96 20 20 90 67 67 67 67 67 218
 166 166 166 166 97 97 97 97 97 199 199 199 96 96 96 96 96 96 96 96
 96 90 90 90 90 118 118 218 218 218 218 218 166 97 97 97 199 199 199 199
 199 199 96 96 96 96 96 96 96 90 90 90 90 90 118 118 118 218 218 218
 136 136 136 136 136 199 199 199 199 199 199 96 96 96 96 96 96 27 27 90
 90 118 118 118 118 118 179 179 179 136 136 136 136 136 199 199 199 199 199 92
 92 92 92 96 27 27 27 27 103 103 103 118 118 118 118 179 179 179 179 136
 136 136 136 136 199 199 199 199 92 92 92 92 92 27 27 27 27 103 103 103
 118 118 118 105 179 179 179 179 136 136 136 136 136 199 199 225 225 92 92 92
 92 92 12 12 12 12 103 103 103 103 118 105 105 179 179 179 179 251 136 136
 136 136 80 80 225 225 225 92 92 92 12 12 12 12 12 12 103 103 103 105
 105 105 179 179 179 179 251 251 251 136 136 80 80 225 225 225 16 16 16 12
 12 228 228 228 228 103 68 68 68 105 105 179 179 179 179 251 251 251 136 205
 80 80 16 16 16 16 16 16 228 228 228 228 228 228 115 115 68 68 68 68
 179 179 179 179 251 104 104 104 104 16 16 16 16 16 16 16 16 16 62 62
 62 62 62 115 115 115 68 203 203 203 203 179 112 104 104 104 104 104 104 16
 16 16 16 16 16 168 168 62 62 62 62 62 115 115 115 203 203 203 203 203
 203 112 104 104 104 104 104 104 168 168 168 168 168 168 168 168 62 62 62 62
 62 115 115 115 203 203 203 203 203 203 112 104 104 104 104 104 104 168 168 168
 168 7 168 168 169 169 169 62 62 62 115 115 115 189 189 189 189 189 195 104
 104 104 104 104 104 104 130 168 168 168 168 168 169 169 169 169 169 169 169 115
 115 115 189 189 189 189 189 195 154 154 104 104 104 104 9 9 130 168 168 168
 168 169 169 169 169 169 169 180 180 180 180 180 189 189 189 189 154 154 154 154
 154 154 9 9 9 9 130 130 168 169 169 169 169 169 169 169 180 180 180 180
 180 189 189 189 154 154 154 154 154 154 154 9 9 9 9 9 130 130 169 169
 169 169 169 169 169 180 180 180 180 180 180 189 154 154 154 154 154 154 154 154
 41 41 41 41 41 130 130 91 169 169 169 169 169 180 180 180 180 180 180 180
 180 154 154 154 154 154 154 154 154 41 41 41 41 41 41 210 91 91 91 164
 164 169 180 180 180 180 180 180 180 180 188 154 154 154 154 154 154 114 41 41
 41 41 41 41 210 91 91 91 164 164 37 37 37 180 180 187 187 187 187 188
 29 154 188 188 188 41 41 41 41 41 41 41 159 159 159 91 91 91 91 78
 78 78 78 78 187 187 188 188 188 188 188 188 188 188 41 41 41 41 41 41
 41 159 159 159 91 91 91 78 78 78 78 78 78 187 187 188 188 188 188 188
 188 188 188 97 97 41 133 133 133 159 159 159 159 91 91 37 37 37 78 78
 78 67 67 67 67 188 188 188 188 188 188 97 97 97 97 133 133 133 56 56
 56 56 56 96 37 37 37 37 37 37 67 67 67 67 67 188 188 188 166 166
 97 97 97 97 97 133 133 56 56 56 56 56 96 20 20 20 20 20 37 67
 67 67 67 67 67 188 188 166 166 97 97 97 97 97 31 31 31 56 56 56
 96 96 96 20 20 20 20 67 67 67 67 67 67 67 67 166 166 166 166 97
 97 97 97 31 31 31 56 56 96 96 96 96 96 20 20 20 20 67 67 67
 67 67 67 67 166 166 166 166 97 97 97 97 31 31 31 204 74 74 74 96
 96 96 20 20 20 58 58 67 67 67 67 67 218 218 218 166 166 97 97 97
 97 31 31 31 74 74 74 74 74 96 96 96 20 90 90 58 67 67 67 67
 218 218 218 218 218 97 97 97 97 97 199 199 199 74 74 74 74 74 96 96
 96 90 90 90 90 90 90 67 218 218 218 218 218 218 97 97 97 97 199 199
 199 199 74 74 74 74 74 96 96 27 90 90 90 90 90 90 90 218 218 218
 218 218 132 132 132 132 199 199 199 199 199 199 74 74 74 74 96 27 27 27
 90 90 90 90 118 118 118 181 218 218 132 132 132 132 132 199 199 199 199 199
 92 92 92 92 74 27 27 27 27 90 90 90 118 118 118 118 179 179 179 179
 132 132 132 132 132 199 199 199 92 92 92 92 92 92 27 27 27 27 103 103
 103 118 118 118 179 179 179 179 179 132 132 132 132 132 199 199 225 225 92 92
 92 92 12 12 12 12 12 12 103 103 103 118 105 105 179 179 179 179 132 132
 132 132 132 199 199 225 225 92 92 92 92 12 12 12 12 12 12 103 103 68
 68 105 105 179 179 179 179 251 132 132 132 132 205 225 225 225 16 16 16 92
 12 12 12 12 12 12 68 68 68 68 68 105 179 179 179 179 179 132 205 205
 205 205 16 16 16 16 16 16 16 228 228 228 228 228 12 68 68 68 68 68
 68 179 179 179 179 179 104 104 104 205 205 16 16 16 16 16 16 16 16 228
 228 62 62 62 115 115 68 68 68 203 203 203 179 106 104 104 104 104 104 205
 205 16 16 16 16 16 168 168 62 62 62 62 62 115 115 115 68 203 203 203
 203 203 104 104 104 104 104 104 104 205 168 168 168 168 168 168 168 62 62 62
 62 62 115 115 115 203 203 203 203 203 203 104 104 104 104 104 104 104 168 168
 168 168 168 168 168 169 169 169 62 62 62 115 115 115 189 189 189 189 189 189
 104 104 104 104 104 104 104 9 168 168 168 168 168 169 169 169 169 169 243 243
 115 180 115 189 189 189 189 189 106 154 154 154 104 104 9 9 9 9 168 168
 168 168 169 169 169 169 169 243 243 180 180 180 180 189 189 189 189 154 154 154
 154 154 104 9 9 9 9 9 130 168 169 169 169 169 169 243 243 243 180 180
 180 180 180 189 186 154 154 154 154 154 154 154 9 9 9 9 9 9 91 91
 169 169 169 169 243 243 180 180 180 180 180 180 186 186 154 154 154 154 154 154
 154 41 41 41 41 41 41 91 91 91 91 169 169 243 243 180 180 180 180 180
 180 186 186 154 154 154 154 154 154 41 41 41 41 41 41 41 91 91 91 91
 91 91 243 243 180 180 180 180 180 180 188 188 188 154 154 154 154 154 41 41
 41 41 41 41 41 91 91 91 91 91 91 78 78 180 180 180 180 180 180 188
 188 188 188 188 188 188 188 41 41 41 41 41 159 159 159 159 91 91 91 91
 78 78 78 78 78 78 188 188 188 188 188 188 188 188 188 188 41 41 41 41
 41 159 159 159 159 91 91 91 78 78 78 78 78 78 78 188 188 188 188 188
 188 188 188 188 250 250 250 41 41 41 159 159 159 159 91 91 91 78 78 78
 78 78 78 67 67 88 188 188 188 188 188 188 188 250 97 250 250 21 21 159
 159 159 56 56 56 91 78 78 78 78 78 67 67 67 67 88 88 188 188 188
 188 97 97 97 97 97 21 204 56 56 56 56 56 56 20 20 20 20 20 67
 67 67 67 67 67 88 188 188 166 166 97 97 97 97 97 31 204 204 56 56
 56 56 96 96 20 20 20 20 67 67 67 67 67 67 67 67 188 166 166 97
 97 97 97 97 31 204 204 204 56 56 96 96 96 96 20 20 20 58 67 67
 67 67 67 67 67 218 218 218 97 97 97 97 97 31 204 204 204 204 74 74
 74 74 74 20 20 58 58 58 58 67 67 67 218 218 218 218 218 97 97 97
 97 97 31 204 204 204 74 74 74 74 74 74 74 58 58 58 58 58 58 67
 67 218 218 218 218 218 97 97 97 97 97 199 199 204 74 74 74 74 74 74
 74 74 90 90 90 90 90 58 58 218 218 218 218 218 218 218 97 97 97 199
 199 199 199 74 74 74 74 74 74 74 27 124 90 90 90 90 90 90 218 218
 218 218 218 132 132 132 132 132 199 199 199 199 199 74 74 74 74 74 27 27
 124 90 90 90 90 90 118 181 181 181 218 218 132 132 132 132 132 199 199 199
 199 92 92 92 92 74 27 27 27 27 124 90 90 90 90 118 181 181 181 181
 173 132 132 132 132 132 199 199 199 92 92 92 92 92 92 27 27 27 27 124
 124 90 90 118 118 173 173 173 173 173 132 132 132 132 132 199 199 225 92 92
 92 92 92 12 12 12 12 12 12 124 103 103 118 105 173 173 173 173 173 132
 132 132 132 132 132 199 225 92 92 92 92 92 12 12 12 12 12 12 12 68
 68 68 68 68 173 173 173 173 132 132 132 132 132 205 225 225 92 92 92 92
 50 50 12 12 12 12 12 12 68 68 68 68 68 173 173 173 173 173 205 205
 205 205 205 205 16 16 16 16 16 50 50 12 12 12 12 12 68 68 68 68
 68 68 68 173 179 106 106 106 205 205 205 205 205 16 16 16 16 16 50 50
 228 228 62 62 62 115 68 68 68 68 68 68 173 179 106 106 106 106 205 205
 205 205 205 16 16 16 16 168 157 157 62 62 62 62 115 115 68 68 68 203
 203 203 106 106 106 106 104 205 205 205 205 205 168 168 168 168 168 168 62 62
 62 62 62 115 115 115 203 203 203 203 203 106 106 106 106 104 104 205 205 205
 168 168 168 168 168 168 169 169 169 62 62 243 115 115 115 153 189 189 189 189
 106 106 106 106 104 104 104 9 9 9 168 168 168 168 169 169 169 169 243 243
 243 180 180 180 153 189 189 189 106 106 106 106 106 106 104 9 9 9 9 9
 168 168 168 169 169 169 169 243 243 243 180 180 180 180 186 189 186 186 106 154
 154 154 154 9 9 9 9 9 9 9 168 168 169 169 169 243 243 243 243 180
 180 180 180 186 186 186 186 154 154 154 154 154 9 9 9 9 9 9 9 91
 91 91 169 169 243 243 243 243 180 180 180 180 186 186 186 186 154 154 154 154
 154 41 41 41 41 9 9 9 91 91 91 91 91 243 243 243 180 180 180 180
 180 186 186 186 186 154 154 154 154 154 41 41 41 41 41 41 41 91 91 91
 91 91 91 243 243 180 180 180 180 180 186 188 188 188 188 188 154 154 154 41
 41 41 41 41 41 159 159 91 91 91 91 91 78 78 78 180 180 180 180 188
 188 188 188 188 188 188 188 188 41 41 41 41 41 159 159 159 159 91 91 91
 91 198 198 198 198 198 198 188 188 188 188 188 188 188 188 188 250 250 41 41
 41 159 159 159 159 159 91 91 91 198 198 198 198 198 198 198 188 188 188 188
 188 188 188 188 188 250 250 250 250 21 159 159 159 159 159 91 91 91 198 198
 198 198 198 198 67 67 88 88 188 188 188 188 188 188 250 250 250 250 21 21
 159 159 159 56 56 91 91 198 198 198 198 198 67 67 67 88 88 88 188 188
 188 188 231 231 250 250 250 21 204 56 56 56 56 56 56 194 239 20 20 198
 67 67 67 67 67 88 88 188 188 231 231 231 231 231 97 97 204 204 204 56
 56 56 56 56 74 20 20 20 58 58 67 67 67 67 67 88 188 188 218 231
 231 231 231 97 97 204 204 204 204 56 56 56 74 74 74 20 20 58 58 58
 67 67 67 67 67 218 218 218 231 231 231 231 97 97 204 204 204 204 204 74
 74 74 74 74 74 58 58 58 58 58 58 67 67 218 218 218 218 218 231 231
 97 97 97 204 204 204 204 204 74 74 74 74 74 74 58 58 58 58 58 58
 58 67 218 218 218 218 218 231 231 97 97 97 204 204 204 204 74 74 74 74
 74 74 74 124 58 58 58 58 58 58 58 218 218 218 218 218 218 132 97 97
 199 200 200 200 74 74 74 74 74 74 74 74 124 90 90 90 90 90 58 181
 181 218 218 218 132 132 132 132 132 199 200 200 200 200 74 74 74 74 74 27
 27 124 124 90 90 90 90 90 181 181 181 181 218 132 132 132 132 132 199 199
 200 200 92 92 92 92 74 27 27 27 124 124 124 90 90 90 90 181 181 181
 181 173 132 132 132 132 132 199 199 199 92 92 92 92 214 214 27 27 27 124
 124 124 124 90 90 173 173 173 173 173 173 132 132 132 132 132 132 199 102 92
 92 92 92 92 12 12 12 12 12 124 124 124 103 68 173 173 173 173 173 173
 173 132 132 132 132 132 102 102 92 92 92 92 50 12 12 12 12 12 12 124
 68 68 68 68 173 173 173 173 173 173 132 132 132 132 205 102 102 102 92 92
 50 50 50 12 12 12 12 12 12 68 68 68 68 68 173 173 173 173 173 205
 205 205 205 205 102 102 102 236 236 50 50 50 50 12 12 12 12 68 68 68
 68 68 68 173 173 173 106 106 106 205 205 205 205 205 102 16 236 236 50 50
 50 157 157 12 12 12 68 68 68 68 68 68 173 173 173 106 106 106 205 205
 205 205 205 205 16 236 160 50 50 157 157 157 157 62 62 68 68 68 68 68
 68 203 106 106 106 106 106 106 205 205 205 205 205 168 160 160 160 168 157 157
 157 62 62 62 115 115 153 153 153 153 203 106 106 106 106 106 106 205 205 205
 205 205 160 160 160 160 168 169 157 169 243 243 243 165 153 153 153 153 153 189
 106 106 106 106 106 106 106 205 205 9 53 53 53 160 160 169 169 169 243 243
 243 243 243 180 153 153 153 153 153 106 106 106 106 106 106 106 9 9 9 9
 53 53 53 168 169 169 169 243 243 243 243 180 180 180 153 186 186 186 186 106
 106 106 106 106 9 9 9 9 9 9 53 91 91 91 169 169 243 243 243 243
 180 180 180 180 186 186 186 186 106 154 154 154 154 9 9 9 9 9 9 9
 91 91 91 91 91 243 243 243 180 180 180 180 180 186 186 186 186 186 154 154
 154 154 41 41 41 41 41 41 91 91 91 91 91 91 243 243 243 180 180 180
 180 180 186 186 186 186 186 188 188 154 154 41 41 41 41 41 41 159 91 91
 91 91 91 91 243 243 180 180 180 180 180 186 186 186 188 188 188 188 188 188
 41 41 41 41 41 159 159 159 91 91 91 91 91 91 198 198 198 180 180 180
 186 188 188 188 188 188 188 188 250 250 41 41 41 159 159 159 159 159 91 91
 91 91 198 198 198 198 198 198 188 188 188 188 188 188 188 188 188 250 250 250
 250 21 159 159 159 159 159 91 91 91 198 198 198 198 198 198 198 188 188 188
 188 188 188 188 188 188 250 250 250 250 21 21 159 159 159 159 91 91 91 198
 198 198 198 198 198 67 88 88 88 188 188 188 188 188 250 250 250 250 250 21
 21 21 159 159 194 194 194 194 198 198 198 198 198 67 67 88 88 88 88 188
 188 188 231 231 250 250 250 250 21 21 21 56 56 56 194 194 194 239 239 198
 198 67 67 67 67 88 88 88 188 188 231 231 231 231 231 250 21 204 204 204
 204 204 56 194 194 194 239 239 239 58 58 58 67 67 67 88 88 188 188 231
 231 231 231 231 231 204 204 204 204 204 204 204 194 194 194 239 239 58 58 58
 58 58 58 67 67 88 218 218 218 231 231 231 231 231 204 204 204 204 204 204
 204 74 74 74 74 239 58 58 58 58 58 58 58 67 218 218 218 218 231 231
 231 231 231 204 204 204 204 204 204 74 74 74 74 74 74 58 58 58 58 58
 58 58 67 218 218 218 218 218 231 231 231 231 200 200 204 204 204 204 74 74
 74 74 74 74 58 58 58 58 58 58 58 58 218 218 218 218 218 17 17 17
 17 200 200 200 200 200 74 74 74 74 74 74 124 124 124 90 90 58 58 58
 181 181 181 218 181 17 17 17 17 17 200 200 200 200 200 214 214 214 74 74
 124 124 124 124 124 90 90 90 90 181 181 181 181 181 132 132 132 132 132 132
 200 200 200 200 214 214 214 214 214 27 124 124 124 124 124 71 71 71 181 181
 181 181 173 132 132 132 132 132 132 200 200 200 92 214 214 214 214 214 27 27
 124 124 124 71 71 71 173 173 173 173 173 173 173 132 132 132 132 132 102 102
 92 92 214 214 214 214 12 12 12 124 124 124 71 71 71 173 173 173 173 173
 173 173 132 132 132 132 102 102 102 102 236 236 50 50 50 12 12 12 12 124
 124 71 68 68 68 173 173 173 173 173 173 173 132 132 102 102 102 102 102 236
 236 50 50 50 50 12 12 12 12 124 68 68 68 68 173 173 173 173 173 173
 205 205 205 205 102 102 102 102 236 236 50 50 50 50 12 12 12 12 68 68
 68 68 68 68 173 173 173 106 106 106 205 205 205 205 102 102 102 236 236 50
 50 50 157 157 12 12 12 68 68 68 68 68 68 173 173 173 106 106 106 205
 205 205 205 205 102 102 236 160 50 50 157 157 157 157 157 165 165 165 153 153
 153 153 173 106 106 106 106 106 106 205 205 205 205 102 160 160 160 160 160 157
 157 157 157 165 165 165 165 153 153 153 153 153 106 106 106 106 106 106 205 205
 205 205 53 160 160 160 160 160 157 157 157 157 165 165 165 165 153 153 153 153
 153 106 106 106 106 106 106 106 205 205 205 53 53 53 160 160 160 160 157 243
 243 243 165 165 165 153 153 153 153 153 106 106 106 106 106 106 106 9 9 9
 53 53 53 53 160 160 160 169 243 243 243 243 165 165 153 153 186 186 186 129
 106 106 106 106 106 9 9 9 9 9 53 53 53 91 91 91 91 243 243 243
 180 180 180 180 186 186 186 186 186 186 106 106 106 106 9 9 9 9 9 9
 91 91 91 91 91 91 243 243 243 180 180 180 180 186 186 186 186 186 186 188
 188 154 154 41 41 41 41 41 41 91 91 91 91 91 91 91 59 243 180 180
 180 180 186 186 186 186 186 186 188 188 188 41 41 41 41 41 41 41 91 91
 91 91 91 91 91 91 198 180 180 180 180 186 186 186 186 188 188 188 188 188
 188 41 41 41 41 41 159 159 159 91 91 91 91 91 91 198 198 198 180 180
 186 186 188 188 188 188 188 188 188 250 250 250 41 41 159 159 159 159 25 91
 91 91 91 198 198 198 198 198 198 188 188 188 188 188 188 188 188 188 250 250
 250 250 21 21 159 159 159 159 91 91 91 198 198 198 198 198 198 198 188 188
 188 188 188 188 188 188 188 250 250 250 250 21 21 21 159 159 159 194 194 194
 198 198 198 198 198 198 198 88 88 88 188 188 188 188 188 250 250 250 250 250
 21 21 21 159 194 194 194 194 194 239 198 198 198 198 198 67 88 88 88 88
 188 188 188 231 231 250 250 250 21 21 21 21 194 194 194 194 194 194 239 239
 239 198 198 67 67 67 88 88 88 188 188 231 231 231 231 231 250 21 21 204
 204 204 194 194 194 194 194 239 239 239 58 58 58 58 67 67 88 88 188 188
 231 231 231 231 231 231 231 204 204 204 204 204 194 194 194 194 239 239 239 58
 58 58 58 58 58 67 88 218 218 231 231 231 231 231 231 231 204 204 204 204
 204 194 194 194 194 239 239 239 58 58 58 58 58 58 67 218 218 218 218 231
 231 231 231 231 231 204 204 204 204 204 194 74 74 74 74 239 58 58 58 58
 58 58 58 58 218 218 218 218 231 231 231 231 231 200 200 200 200 200 204 74
 74 74 74 74 155 58 58 58 58 58 58 58 58 218 218 218 218 17 17 17
 17 17 200 200 200 200 200 200 214 214 214 74 155 155 124 58 58 58 58 58
 58 181 181 181 181 181 17 17 17 17 17 200 200 200 200 200 214 214 214 214
 214 214 124 124 124 71 71 71 71 71 181 181 181 181 181 17 17 17 17 17
 200 200 200 200 200 214 214 214 214 214 27 124 124 124 71 71 71 71 71 181
 181 181 181 173 17 17 17 17 17 46 200 200 200 200 214 214 214 214 214 214
 124 124 124 71 71 71 71 71 173 173 173 173 173 173 132 17 132 132 102 102
 102 200 214 214 214 214 214 214 12 12 124 124 71 71 71 71 173 173 173 173
 173 173 173 173 132 132 102 102 102 102 102 236 236 214 214 214 184 184 12 12
 71 71 71 71 71 173 173 173 173 173 173 173 173 205 102 102 102 102 102 102
 236 236 236 50 50 184 184 184 12 12 71 68 68 68 68 173 173 173 173 173
 173 205 205 205 102 102 102 102 102 236 236 236 50 50 184 184 184 12 93 93
 68 68 68 68 173 173 173 173 106 106 106 205 205 205 102 102 102 102 236 236
 236 50 50 184 184 184 93 93 165 68 68 68 68 68 173 173 173 106 106 106
 205 205 205 205 102 102 102 160 160 160 50 157 157 157 157 157 165 165 165 153
 153 153 153 173 106 106 106 106 106 106 205 205 205 205 102 160 160 160 160 160
 157 157 157 157 165 165 165 165 153 153 153 153 153 106 106 106 106 106 106 205
 205 205 205 53 160 160 160 160 160 160 157 157 161 165 165 165 165 153 153 153
 153 153 106 106 106 106 106 106 106 205 205 53 53 53 53 160 160 160 160 161
 161 161 165 165 165 165 165 153 153 153 129 129 106 106 106 106 106 106 9 9
 53 53 53 53 53 160 160 160 161 161 161 243 165 165 165 165 153 153 186 129
 129 129 106 106 106 106 106 9 9 53 53 53 53 53 91 91 91 25 25 65
 243 212 212 212 212 186 186 186 186 129 129 106 106 106 106 9 9 9 98 98
 98 98 91 91 91 91 25 25 59 59 59 212 212 212 186 186 186 186 186 186
 188 106 106 35 41 41 41 41 98 98 98 91 91 91 91 91 91 59 59 59
 212 212 212 186 186 186 186 186 186 188 188 35 35 41 41 41 41 98 98 98
 91 91 91 91 91 91 59 59 59 59 212 212 186 186 186 186 188 188 188 188
 188 35 41 41 41 41 98 159 159 25 25 91 91 91 91 59 59 59 59 59
 212 186 186 188 188 188 188 188 188 35 250 250 250 250 21 21 159 159 25 25
 25 25 25 59 59 59 59 59 198 198 188 188 188 188 188 188 188 188 188 250
 250 250 250 21 21 21 159 159 25 25 25 25 198 198 198 198 198 198 198 188
 188 188 188 188 188 188 188 250 250 250 250 250 21 21 21 159 194 194 194 194
 194 239 198 198 198 198 198 198 88 88 188 188 188 188 188 6 250 250 250 250
 250 21 21 21 194 194 194 194 194 194 239 239 198 117 198 117 67 88 88 88
 188 188 188 6 6 231 250 250 250 21 21 21 21 194 194 194 194 194 194 239
 239 239 117 117 58 67 67 88 88 188 188 188 231 231 231 231 231 250 21 21
 21 204 194 194 194 194 194 194 239 239 239 239 58 58 58 58 48 48 88 188
 188 231 231 231 231 231 231 231 204 204 204 204 194 194 194 194 194 239 239 239
 58 58 58 58 58 48 48 48 48 218 231 231 231 231 231 231 231 204 204 204
 204 204 101 101 101 194 239 239 239 58 58 58 58 58 48 48 48 218 218 231
 231 231 231 231 231 231 204 204 204 204 204 101 101 101 101 239 239 239 58 58
 58 58 58 48 48 48 218 218 218 231 231 231 231 231 200 200 200 200 200 204
 101 101 101 101 155 155 155 58 58 58 58 58 58 48 218 218 218 218 17 17
 17 17 17 200 200 200 200 200 200 214 214 214 214 155 155 155 155 58 71 58
 58 145 145 181 181 181 181 17 17 17 17 17 200 200 200 200 200 214 214 214
 214 214 155 155 155 71 71 71 71 71 71 181 181 181 181 17 17 17 17 17
 17 46 46 200 200 200 214 214 214 214 214 155 155 155 71 71 71 71 71 71
 149 149 181 181 173 17 17 17 17 46 46 46 46 46 214 214 214 214 214 214
 214 124 124 71 71 71 71 71 71 149 149 149 192 192 173 17 17 17 46 46
 46 46 46 214 214 214 214 214 214 214 12 124 71 71 71 71 71 149 149 149
 192 192 192 173 173 17 102 102 102 102 102 102 236 236 214 214 214 184 184 184
 93 71 71 71 71 71 149 149 149 192 192 192 192 192 102 102 102 102 102 102
 102 236 236 236 236 184 184 184 184 93 93 93 71 71 68 149 149 192 192 192
 173 173 205 205 102 102 102 102 102 102 236 236 236 236 184 184 184 184 93 93
 93 93 68 68 149 149 192 192 192 106 106 106 205 205 102 102 102 102 102 236
 236 236 236 184 184 184 184 93 93 93 165 165 144 144 144 144 144 192 106 106
 106 205 205 205 102 102 102 102 160 160 160 160 184 184 184 184 93 165 165 165
 165 153 144 144 144 144 106 106 106 106 205 205 205 205 102 102 160 160 160 160
 160 160 161 161 161 161 165 165 165 165 153 153 144 144 106 106 106 106 106 106
 205 205 205 205 160 160 160 160 160 160 160 161 161 161 161 165 165 165 165 153
 153 153 129 129 106 106 106 106 106 106 205 205 53 53 53 160 160 160 160 160
 161 161 161 161 165 165 165 165 153 153 153 129 129 129 106 106 106 106 106 205
 53 53 53 53 53 160 160 160 160 161 161 161 65 65 165 165 165 153 153 153
 129 129 129 106 106 106 106 106 9 53 53 53 53 53 53 160 25 25 25 65
 65 65 65 212 212 212 212 186 186 129 129 129 106 106 106 35 35 9 98 98
 98 98 98 98 25 25 25 25 59 59 65 65 212 212 212 212 186 186 186 129
 129 188 106 35 35 35 35 98 98 98 98 98 98 25 25 25 25 59 59 59
 59 212 212 212 212 186 186 186 186 129 188 188 35 35 35 35 98 98 98 98
 98 25 25 25 25 25 59 59 59 59 59 212 212 212 186 186 186 188 188 188
 188 35 35 35 35 35 98 98 98 98 25 25 25 25 25 59 59 59 59 59
 59 212 212 188 188 188 188 188 188 35 35 35 35 35 35 21 98 98 98 25
 25 25 25 25 59 59 59 59 59 59 59 188 188 188 188 188 188 188 188 35
 35 250 250 250 21 21 21 21 25 25 25 25 25 59 59 59 59 59 59 59
 188 188 188 188 188 188 188 6 6 250 250 250 250 21 21 21 194 194 194 194
 194 194 239 117 117 117 117 117 117 88 88 188 188 188 188 6 6 6 250 250
 250 250 21 21 21 194 194 194 194 194 194 239 239 117 117 117 117 117 88 88
 188 188 188 188 6 6 6 250 250 250 250 21 21 21 194 194 194 194 194 194
 239 239 117 117 117 117 117 67 88 88 188 188 6 6 6 231 231 231 250 250
 21 21 21 194 194 194 194 194 194 239 239 239 117 117 58 58 48 48 48 48
 188 6 6 231 231 231 231 231 231 204 204 204 194 194 194 194 194 194 239 239
 239 117 58 58 58 48 48 48 48 48 6 231 231 231 231 231 231 231 204 204
 204 204 101 101 101 101 194 194 239 239 58 58 58 58 48 48 48 48 48 218
 231 231 231 231 231 231 231 200 200 204 204 101 101 101 101 101 194 155 155 58
 58 58 58 145 48 48 48 48 218 231 231 99 99 99 231 200 200 200 200 200
 101 101 101 101 101 155 155 155 121 58 58 145 145 145 145 48 48 218 17 17
 17 17 17 17 200 200 200 200 200 200 214 214 214 155 155 155 155 121 121 71
 145 145 145 145 145 181 181 17 17 17 17 17 17 46 46 200 200 200 214 214
 214 214 155 155 155 155 121 71 71 71 71 145 145 181 181 181 17 17 17 17
 17 46 46 46 46 200 200 214 214 214 214 214 155 155 155 121 71 71 71 71
 149 149 149 149 149 192 17 17 17 17 46 46 46 46 46 214 214 214 214 214
 214 155 121 121 71 71 71 71 71 149 149 149 149 149 192 192 17 17 17 46
 46 46 46 46 46 214 214 214 214 214 121 121 121 71 71 71 71 71 149 149
 149 149 192 192 192 148 148 102 102 172 172 172 102 236 236 236 214 214 214 184
 93 93 93 71 71 71 71 149 149 149 149 192 192 192 192 102 102 102 102 102
 102 102 236 236 236 236 184 184 184 93 93 93 93 93 71 71 149 149 149 192
 192 192 192 102 102 102 102 102 102 102 102 236 236 236 236 184 184 184 93 93
 93 93 93 93 144 144 144 149 192 192 106 106 106 205 102 102 102 102 102 102
 236 236 236 236 184 184 184 93 93 93 93 93 93 144 144 144 144 144 192 106
 106 106 205 205 102 102 102 102 102 160 160 160 160 184 184 161 161 93 93 165
 107 107 144 144 144 144 144 106 106 106 106 205 205 205 102 102 102 160 160 160
 160 160 161 161 161 161 161 165 107 107 107 107 144 144 144 144 106 106 106 106
 106 205 205 205 102 160 160 160 160 160 160 161 161 161 161 161 107 107 107 107
 107 144 144 14 14 14 14 106 106 106 106 205 196 196 196 196 160 160 160 160
 161 161 161 161 161 107 107 165 165 165 153 14 14 14 14 14 106 106 106 106
 196 196 196 196 196 196 160 160 160 161 161 161 161 65 65 65 165 165 165 153
 14 14 14 14 14 14 106 35 35 196 196 196 196 196 196 53 160 160 25 161
 65 65 65 65 65 212 212 212 186 14 14 14 14 14 14 35 35 35 35 98
 98 98 98 98 98 25 25 25 25 65 65 65 65 65 212 212 212 186 14 14
 14 14 14 35 35 35 35 35 98 98 98 98 98 98 25 25 25 25 59 59
 59 59 65 212 212 212 186 186 186 14 14 188 35 35 35 35 35 35 98 98
 98 98 98 25 25 25 25 59 59 59 59 59 59 212 212 186 186 186 188 188
 188 35 35 35 35 35 35 98 98 98 98 25 25 25 25 25 59 59 59 59
 59 59 212 212 188 188 188 188 188 188 35 35 35 35 35 35 35 98 98 139
 139 25 25 25 25 59 59 59 59 59 59 59 28 188 188 188 188 188 188 35
 35 35 35 35 250 21 21 21 139 139 139 139 25 25 59 59 59 117 117 117
 117 28 188 188 188 188 188 6 6 6 250 250 250 250 21 21 21 139 139 194
 194 194 194 117 117 117 117 117 117 117 28 28 188 188 188 188 6 6 6 6
 250 250 250 21 21 21 194 194 194 194 194 194 194 117 117 117 117 117 117 28
 28 28 188 188 6 6 6 6 6 250 250 250 21 21 21 194 194 194 194 194
 194 194 117 117 117 117 117 117 48 48 48 188 6 6 6 6 6 231 231 250
 250 21 120 120 194 194 194 194 194 194 194 239 117 117 117 117 117 48 48 48
 48 6 6 6 6 231 235 235 235 120 120 120 120 194 194 194 194 194 194 194
 239 239 117 117 117 48 48 48 48 48 48 6 89 235 235 235 235 231 231 120
 120 120 120 101 101 101 101 101 194 194 222 222 222 58 58 48 48 48 48 48
 6 89 89 235 99 99 231 231 120 120 120 120 101 101 101 101 101 194 155 155
 121 222 58 145 145 48 48 48 48 89 89 89 99 99 99 99 99 200 200 200
 200 101 101 101 101 101 155 155 155 121 121 145 145 145 145 145 48 89 89 89
 89 99 99 99 99 200 200 200 200 200 200 101 214 101 155 155 155 155 121 121
 121 145 145 145 145 145 89 89 89 89 17 17 17 46 46 46 46 200 200 214
 214 214 214 155 155 155 155 121 121 121 71 145 145 145 145 89 89 89 17 17