# vtk DataFile Version 2.0
Data set from ImportExport Version 6.5.171.b0b162591
ASCII

DATASET RECTILINEAR_GRID
DIMENSIONS 30 30 30
X_COORDINATES 30 float
-1.250000 1.250000 3.750000 6.250000 8.750000 11.250000 13.750000 16.250000 18.750000 21.250000 23.750000 26.250000 28.750000 31.250000 33.750000 36.250000 38.750000 41.250000 43.750000 46.250000 48.750000 
51.250000 53.750000 56.250000 58.750000 61.250000 63.750000 66.250000 68.750000 71.250000 
Y_COORDINATES 30 float
-1.250000 1.250000 3.750000 6.250000 8.750000 11.250000 13.750000 16.250000 18.750000 21.250000 23.750000 26.250000 28.750000 31.250000 33.750000 36.250000 38.750000 41.250000 43.750000 46.250000 48.750000 
51.250000 53.750000 56.250000 58.750000 61.250000 63.750000 66.250000 68.750000 71.250000 
Z_COORDINATES 30 float
-1.250000 1.250000 3.750000 6.250000 8.750000 11.250000 13.750000 16.250000 18.750000 21.250000 23.750000 26.250000 28.750000 31.250000 33.750000 36.250000 38.750000 41.250000 43.750000 46.250000 48.750000 
51.250000 53.750000 56.250000 58.750000 61.250000 63.750000 66.250000 68.750000 71.250000 
CELL_DATA 24389
SCALARS FeatureIds int 1
LOOKUP_TABLE default
 115 115 129 129 129 129 129 129 117 117 117 117 117 117 117 117 117 117 78 78
 78 207 207 207 207 115 115 115 115 115 115 33 33 33 129 129 129 117 117 117
 117 117 117 117 117 117 117 209 209 3 3 3 207 115 115 115 115 115 5 5
 33 33 33 33 33 140 140 117 117 117 117 117 117 117 117 117 209 209 3 3
 3 3 5 5 5 5 5 5 5 33 33 33 33 80 140 140 140 117 117 117
 117 117 117 117 209 209 209 3 3 3 3 5 5 5 5 5 5 5 33 33
 33 33 80 140 140 140 140 117 117 117 117 117 117 209 209 209 209 3 3 3
 5 5 5 5 5 5 154 154 154 33 80 80 140 140 140 140 44 44 117 117
 44 209 209 209 209 209 209 49 58 58 58 5 5 5 154 154 154 154 154 80
 80 140 140 140 140 140 22 22 44 44 127 209 209 209 209 90 90 58 58 58
 58 58 154 154 154 154 154 154 80 80 140 140 140 140 22 22 22 22 127 127
 127 209 209 90 90 90 58 58 58 58 58 154 154 154 154 154 154 2 2 2
 140 140 22 22 22 150 150 22 127 127 127 90 90 90 90 58 58 58 58 58
 154 218 218 218 218 218 2 2 2 95 95 95 22 22 150 150 22 22 127 127
 90 90 90 90 58 58 58 58 58 218 218 218 218 218 218 2 2 2 95 95
 95 95 22 22 22 22 22 22 22 90 90 90 90 58 58 58 58 58 218 153
 153 153 153 153 2 2 95 95 95 95 95 22 22 22 22 22 169 169 164 164
 164 221 221 221 221 221 221 153 153 153 153 153 235 235 235 95 95 95 95 95
 22 22 169 169 169 169 169 164 164 164 221 221 221 221 221 221 153 153 153 235
 235 235 235 235 234 234 234 234 234 169 169 169 169 169 169 169 164 164 164 164
 221 221 221 221 221 221 235 235 235 235 235 235 235 102 234 234 234 234 169 169
 169 169 169 169 164 164 164 164 164 202 202 221 221 221 221 55 55 235 235 235
 102 102 102 102 234 234 234 169 169 169 169 169 169 164 164 164 164 164 164 202
 202 202 202 202 55 55 55 55 55 102 102 102 102 234 234 234 169 169 169 169
 169 169 164 164 164 164 164 164 202 202 202 202 202 55 55 55 55 55 18 102
 102 102 102 234 38 38 169 169 169 169 169 164 164 164 164 164 164 164 202 202
 202 202 1 1 55 55 18 18 18 18 18 18 38 38 38 38 38 162 162 162
 164 164 164 164 164 164 164 164 202 202 1 1 1 1 18 18 18 18 18 18
 18 38 38 38 38 38 162 162 162 223 133 133 133 133 164 164 164 202 1 1
 1 1 1 18 18 18 18 18 79 79 79 38 38 38 38 162 162 162 223 223
 133 133 133 133 164 164 152 1 1 1 1 1 18 18 189 189 79 79 79 79
 79 38 38 162 162 162 162 223 223 223 133 133 133 152 152 152 152 152 152 1
 1 18 189 189 189 79 79 79 79 79 79 38 162 162 162 162 223 223 223 223
 133 133 152 152 152 152 152 152 152 35 35 189 189 79 79 79 79 79 79 79
 79 162 162 162 162 223 223 223 223 223 152 152 152 152 152 152 152 152 35 35
 35 79 79 79 79 79 79 79 79 79 53 162 89 89 89 89 89 89 89 207
 152 152 152 152 152 152 152 35 85 35 228 79 79 79 79 79 79 79 79 53
 89 89 89 89 89 89 89 207 207 207 152 152 152 152 152 85 85 85 85 228
 228 79 79 79 79 79 117 117 117 117 89 89 89 89 89 89 207 207 207 207
 152 152 152 115 85 85 85 85 85 228 79 79 79 79 117 117 117 117 117 117
 89 89 89 89 207 207 207 207 207 207 115 115 115 115 85 85 85 85 228 79
 79 79 117 117 117 117 117 117 117 117 89 89 89 207 207 207 207 207 115 115
 115 115 129 129 129 129 129 129 129 4 4 4 117 117 117 117 117 117 117 78
 78 78 207 207 207 207 115 115 115 115 115 129 129 129 129 129 129 129 4 4
 4 117 117 117 117 117 117 117 117 78 78 207 207 207 207 115 115 115 115 5
 129 129 129 129 129 129 140 140 4 4 117 117 117 117 117 117 117 209 209 3
 3 3 5 5 5 5 115 5 5 5 129 129 129 80 80 140 140 140 140 117
 117 117 117 117 117 117 209 209 3 3 3 5 5 5 5 5 5 5 5 33
 80 80 80 80 140 140 140 140 44 44 44 44 44 44 209 209 209 209 90 3
 58 5 5 5 5 5 154 154 154 154 80 80 80 140 140 140 140 44 44 44
 44 44 127 127 127 90 90 90 90 58 58 58 5 5 5 154 154 154 154 80
 80 80 140 140 140 140 140 44 44 44 44 127 127 127 90 90 90 90 58 58
 58 58 58 154 154 154 154 154 80 80 80 140 140 140 140 22 22 22 22 127
 127 127 127 90 90 90 90 58 58 58 58 58 154 154 154 154 154 2 2 2
 2 140 140 22 22 22 150 150 22 127 127 127 90 90 90 90 58 58 58 58
 58 154 218 218 218 218 2 2 2 2 95 95 95 22 22 150 150 22 127 127
 127 90 90 90 90 58 58 58 58 58 218 218 218 218 218 2 2 2 2 95
 95 95 95 22 22 22 22 22 127 127 90 90 90 90 58 58 58 58 58 218
 218 218 218 218 2 2 2 95 95 95 95 95 22 22 22 22 22 22 176 90
 90 90 90 221 221 221 221 221 153 153 153 153 153 235 2 238 95 95 95 95
 95 95 22 22 169 169 169 176 164 164 164 75 221 221 221 221 221 221 63 153
 235 235 235 235 238 238 238 234 234 95 169 169 169 169 169 169 176 164 164 164
 75 221 221 221 221 221 221 63 235 235 235 235 235 238 238 238 238 234 234 169
 169 169 169 169 169 176 164 164 164 75 75 202 202 202 202 202 55 55 55 55
 55 238 238 238 238 238 234 169 169 169 169 169 169 169 176 164 164 164 164 75
 202 202 202 202 202 55 55 55 55 55 102 102 238 238 238 234 87 169 169 169
 169 169 169 164 164 164 164 164 164 202 202 202 202 202 55 55 55 55 55 18
 18 18 18 18 234 38 38 169 169 169 169 169 164 164 164 164 164 164 164 202
 202 202 202 1 1 55 55 18 18 18 18 18 18 18 38 38 169 169 169 169
 164 164 164 164 164 164 164 164 164 202 202 1 1 1 1 18 18 18 18 18
 18 18 79 38 38 38 38 162 162 223 223 133 133 133 133 164 164 164 202 1
 1 1 1 1 18 18 18 18 18 79 79 79 79 38 38 38 162 162 223 223
 223 133 133 133 133 164 164 152 1 1 1 59 59 18 18 18 18 79 79 79
 79 79 79 38 162 162 162 223 223 223 223 133 133 133 133 152 152 152 152 152
 59 59 59 189 189 79 79 79 79 79 79 79 79 162 162 162 223 223 223 223
 223 133 133 152 152 152 152 152 152 59 35 35 35 228 79 79 79 79 79 79
 79 79 53 53 162 223 223 223 223 223 223 133 152 152 152 152 152 152 35 35
 35 35 228 79 79 79 79 79 79 79 79 53 53 89 89 89 89 89 89 89
 207 152 152 152 152 152 152 35 35 35 35 228 228 79 79 79 79 79 79 53
 53 53 89 89 89 89 89 89 207 207 207 152 152 152 152 35 35 35 35 35
 228 228 79 79 79 79 79 117 117 117 117 89 89 89 89 89 89 207 207 207
 207 152 152 152 115 35 35 35 35 228 228 79 79 79 79 117 117 117 117 117
 89 89 89 89 89 207 207 207 207 207 115 115 115 115 115 129 129 129 129 228
 79 79 79 117 117 117 117 117 117 117 89 89 89 89 207 207 207 207 115 115
 115 115 115 129 129 129 129 129 129 88 4 4 4 4 117 117 117 117 117 78
 78 78 78 78 207 207 207 115 115 115 115 115 129 129 129 129 129 129 88 4
 4 4 4 117 117 117 117 117 40 78 78 78 78 207 207 115 115 115 115 115
 5 129 129 129 129 129 129 140 4 4 4 4 117 117 117 117 117 40 40 78
 78 3 3 5 5 5 5 5 5 5 129 129 129 129 80 80 140 140 140 140
 4 117 117 117 117 117 40 127 209 90 90 90 5 5 5 5 5 5 5 5
 129 80 80 80 80 140 140 140 140 44 44 44 44 44 44 127 127 90 90 90
 90 90 5 5 5 5 5 154 154 154 80 80 80 80 140 140 140 140 44 44
 44 44 44 127 127 127 90 90 90 90 90 58 58 5 5 5 154 154 154 154
 80 80 80 140 140 140 140 140 44 44 44 44 127 127 127 90 90 90 90 90
 58 58 58 58 154 154 154 154 154 80 80 80 140 140 140 140 22 22 22 44
 127 127 127 127 90 90 90 90 90 58 58 58 58 154 154 154 154 96 2 2
 2 2 140 140 22 22 22 22 22 127 127 127 127 90 90 90 90 90 58 58
 58 58 154 218 218 218 96 2 2 2 2 95 95 22 22 22 22 22 22 127
 127 127 90 90 90 90 90 58 58 58 58 218 218 218 218 96 2 2 2 2
 95 95 95 95 22 22 22 22 127 127 127 90 90 90 90 90 58 58 58 58
 218 218 218 218 96 2 2 2 95 95 95 95 95 22 22 22 22 22 127 176
 90 90 90 90 221 221 221 221 221 221 63 63 63 63 2 2 238 238 95 95
 95 95 95 22 22 169 169 176 176 200 200 75 75 221 221 221 221 221 221 63
 63 63 63 235 238 238 238 238 238 95 95 169 169 169 169 169 176 176 200 200
 75 75 75 221 221 221 221 221 63 63 63 63 235 238 238 238 238 238 238 169
 169 169 169 169 169 176 176 176 164 75 75 75 75 221 221 202 202 63 55 55
 55 55 238 238 238 238 238 238 87 87 169 169 169 169 176 176 176 164 164 75
 75 75 202 202 202 202 55 55 55 55 55 238 238 238 238 238 87 87 87 169
 169 169 169 169 176 164 164 164 164 75 75 202 202 202 202 1 55 55 55 55
 18 18 238 238 238 87 87 87 169 169 169 169 169 164 164 164 164 164 164 164
 202 202 202 202 1 1 1 55 18 18 18 18 18 18 18 87 87 169 169 169
 169 164 164 164 164 164 164 164 164 164 202 202 1 1 1 1 18 18 18 18
 18 18 18 79 73 77 77 77 162 162 223 223 133 133 133 133 164 164 164 202
 1 1 59 59 59 18 18 18 18 18 79 79 79 79 73 77 77 162 162 223
 223 223 133 133 133 133 164 164 152 59 59 59 59 59 59 18 18 18 79 79
 79 79 79 79 73 162 162 162 223 223 223 223 133 133 133 133 152 152 152 59
 59 59 59 59 18 18 79 79 79 79 79 79 79 53 53 53 53 223 223 223
 223 223 133 133 152 152 152 152 152 59 59 35 35 35 228 79 79 79 79 79
 79 79 53 53 53 53 89 89 223 223 223 223 152 152 152 152 152 152 152 35
 35 35 35 228 228 79 79 79 79 79 79 53 53 53 53 89 89 89 89 89
 122 207 152 152 152 152 152 152 35 35 35 35 228 228 79 79 79 79 79 79
 53 53 53 53 89 89 89 89 89 207 207 207 152 152 152 152 35 35 35 35
 35 228 228 228 79 79 79 79 117 53 53 53 53 89 89 89 89 89 207 207
 207 207 152 152 152 35 35 35 35 35 228 228 228 79 79 4 117 117 117 117
 117 117 78 78 78 78 207 207 207 207 207 207 115 115 115 129 129 129 129 129
 228 228 79 4 4 4 117 117 117 117 117 78 78 78 78 207 207 207 207 207
 115 115 115 115 129 129 129 129 129 129 88 4 4 4 4 4 117 117 117 40
 78 78 78 78 78 78 207 207 115 115 115 115 115 129 129 129 129 129 129 88
 88 4 4 4 4 117 117 117 40 40 78 78 78 78 78 207 115 115 115 115
 115 5 129 129 129 129 129 88 88 88 4 4 4 4 117 117 117 40 40 40
 78 78 78 90 5 5 5 5 5 5 5 129 129 129 80 80 88 88 140 140
 140 4 4 44 44 44 40 40 40 90 90 90 90 5 5 5 5 5 5 5
 129 129 80 80 80 80 140 140 140 140 44 44 44 44 44 44 127 127 90 90
 90 90 90 5 5 5 5 5 154 154 154 80 80 80 80 140 140 140 140 44
 44 44 44 44 127 127 127 90 90 90 90 90 58 58 5 5 5 154 154 154
 80 80 80 80 140 140 140 140 44 44 44 44 44 127 127 127 90 90 90 90
 90 58 58 84 84 84 154 154 154 96 80 80 80 140 140 140 140 22 44 44
 44 127 127 127 127 90 90 90 90 90 58 58 58 84 84 154 154 96 96 2
 2 2 2 140 140 22 22 22 22 22 127 127 127 127 90 90 90 90 90 58
 58 58 84 84 218 218 96 96 2 2 2 2 140 95 22 22 22 22 22 127
 127 127 127 90 90 90 90 90 58 58 58 84 84 218 218 96 96 2 2 2
 2 95 95 95 95 22 22 22 22 127 127 127 90 90 90 90 90 58 58 58
 84 84 63 63 63 96 2 2 2 2 95 95 95 95 95 22 22 22 22 200
 200 200 90 90 90 75 221 221 221 221 63 63 63 63 63 2 2 2 238 71
 71 95 95 95 22 22 169 169 200 200 200 200 75 75 75 221 221 221 221 63
 63 63 63 63 63 238 238 238 238 71 71 71 95 169 169 169 169 176 200 200
 200 75 75 75 75 221 221 221 63 63 63 63 63 63 238 238 238 238 71 71
 71 87 169 169 169 169 176 176 200 200 75 75 75 75 75 221 202 63 63 63
 63 63 238 238 238 238 238 238 71 87 87 87 169 169 169 176 176 176 164 75
 75 75 75 75 75 202 63 63 55 55 55 55 238 238 238 238 238 87 87 87
 87 169 169 169 176 176 164 164 164 75 75 75 75 75 202 202 1 55 55 55
 18 18 238 238 238 238 87 87 87 87 169 169 169 169 164 164 164 164 164 75
 75 75 75 202 202 1 1 1 18 18 18 18 9 9 9 73 87 77 77 77
 77 169 164 164 164 164 164 164 164 164 75 75 202 1 59 59 59 18 18 18
 18 9 9 73 73 73 77 77 77 77 77 164 164 164 133 133 164 164 164 164
 105 105 1 59 59 59 59 18 18 18 9 9 73 73 73 73 77 77 77 77
 223 223 223 133 133 133 164 164 105 105 59 59 59 59 59 59 18 18 18 79
 79 79 73 73 73 73 77 53 53 223 223 223 223 133 133 164 164 105 152 152
 59 59 59 59 59 18 18 18 79 79 79 79 73 73 53 53 53 53 64 64
 223 223 223 133 122 152 152 152 152 59 59 59 35 35 35 228 228 79 79 79
 79 79 53 53 53 53 53 53 64 201 201 201 122 122 122 152 152 152 152 152
 35 35 35 35 228 228 79 79 79 79 79 53 53 53 53 53 53 201 201 201
 122 122 122 122 152 152 152 152 35 35 35 35 35 228 228 228 79 79 79 79
 53 53 53 53 53 53 201 201 201 78 122 122 122 122 152 152 152 35 35 35
 35 35 228 228 228 79 79 79 79 53 53 53 53 53 78 78 78 78 78 122
 122 122 122 152 152 152 35 35 35 35 35 228 228 228 79 79 4 4 117 117
 53 53 78 78 78 78 78 78 207 207 207 207 207 115 115 129 129 129 129 129
 129 228 228 4 4 4 4 4 117 117 117 78 78 78 78 78 78 78 207 207
 207 115 115 115 129 129 129 129 129 129 88 88 4 4 4 4 4 4 40 40
 40 40 78 78 78 78 78 8 8 8 8 8 115 115 129 129 129 129 129 88
 88 88 4 4 4 4 4 40 40 40 40 40 78 78 78 78 8 8 8 8
 8 8 129 129 129 129 129 88 88 88 88 88 4 4 4 4 40 40 40 40
 40 40 78 78 8 8 8 8 8 8 8 5 129 129 129 80 88 88 88 88
 140 140 4 4 44 44 40 40 40 40 40 90 90 90 8 8 8 8 5 5
 5 129 129 80 80 80 88 88 88 140 140 44 44 44 44 44 40 40 40 90
 90 90 90 90 8 5 5 5 5 84 154 80 80 80 80 80 88 140 140 140
 44 44 44 44 44 127 127 127 90 90 90 90 90 58 84 84 84 84 84 154
 154 80 80 80 80 140 140 140 140 44 44 44 44 44 127 127 127 90 90 90
 90 90 90 84 84 84 84 84 154 96 96 80 80 80 140 140 140 140 140 44
 44 44 127 127 127 127 90 90 90 90 90 90 84 84 84 84 84 154 96 96
 2 2 2 2 140 140 22 22 22 22 22 127 127 127 127 90 90 90 90 90
 90 84 84 84 84 84 218 96 96 2 2 2 2 2 95 22 22 22 22 22
 127 127 127 127 90 90 90 90 90 90 58 84 84 84 218 218 96 96 2 2
 2 2 95 95 95 95 22 22 22 220 127 127 127 90 90 90 90 90 90 58
 84 84 84 63 63 63 96 2 2 2 2 95 95 95 95 22 22 22 22 127
 127 200 200 193 90 193 193 221 221 221 63 63 63 63 63 63 63 2 238 71
 71 71 71 71 95 22 22 169 176 176 200 200 200 75 75 75 221 221 221 63
 63 63 63 63 63 63 238 238 238 71 71 71 71 71 87 169 169 176 176 200
 200 200 75 75 75 75 75 221 63 63 63 63 63 63 63 238 238 238 71 71
 71 71 87 87 87 169 176 176 176 200 200 75 75 75 75 75 75 63 63 63
 63 63 63 25 238 238 238 238 71 71 87 87 87 87 169 176 176 176 176 164
 75 75 75 75 75 75 75 63 63 63 55 25 25 25 238 238 238 71 71 87
 87 87 87 169 169 176 176 176 164 164 75 75 75 75 75 75 63 231 55 55
 55 25 18 238 238 9 9 91 87 87 87 77 77 169 176 164 164 164 164 164
 75 75 75 75 75 231 231 231 231 18 18 18 9 9 9 9 91 91 77 77
 77 77 77 164 164 164 164 164 164 164 75 75 105 105 231 231 231 231 231 18
 18 9 9 9 9 73 73 77 77 77 77 77 164 164 164 164 164 164 164 164
 105 105 105 231 231 231 231 231 18 18 9 9 9 73 73 73 73 77 77 77
 77 64 223 223 133 133 133 164 105 105 105 105 231 231 231 231 231 231 18 9
 9 9 73 73 73 73 73 77 77 64 64 64 64 223 133 133 164 105 105 105
 105 231 231 231 231 231 231 231 9 79 79 73 73 73 73 73 53 53 53 64
 64 64 64 122 122 122 105 105 105 105 231 231 231 231 35 35 228 228 79 79
 79 73 73 73 53 53 53 53 64 64 201 201 122 122 122 122 122 105 105 231
 231 35 35 35 35 228 228 228 79 79 79 79 53 53 53 53 53 53 201 201
 201 122 122 122 122 122 152 152 152 35 35 35 35 35 228 228 228 149 79 79
 53 53 53 53 53 53 53 201 201 201 122 122 122 122 122 122 152 152 35 35
 35 35 35 228 228 228 149 149 79 53 53 53 53 53 53 78 78 78 78 78
 122 122 122 122 122 122 184 35 35 35 35 35 228 228 228 149 149 4 4 4
 53 53 53 78 78 78 78 78 78 78 122 122 122 122 115 115 129 129 129 129
 129 129 228 228 149 4 4 4 4 117 117 40 40 78 78 78 78 78 78 122
 122 122 115 115 115 129 129 129 129 129 129 88 88 147 147 147 4 4 166 40
 40 40 40 40 78 78 78 78 8 8 8 8 8 8 129 129 129 129 129 88
 88 88 88 147 147 4 4 166 40 40 40 40 40 40 78 78 78 8 8 8
 8 8 8 129 129 129 129 191 88 88 88 88 88 147 4 4 166 40 40 40
 40 40 40 40 78 8 8 8 8 8 8 8 5 129 129 129 191 88 88 88
 88 88 140 4 4 156 40 40 40 40 40 40 40 90 8 8 8 8 8 8
 8 65 65 65 65 80 88 88 88 88 88 140 44 156 156 44 44 40 40 40
 40 90 90 90 90 8 8 5 5 84 84 65 65 65 80 80 88 88 88 140
 140 44 156 156 44 44 40 127 127 90 90 90 90 90 84 84 84 84 84 84
 84 65 65 80 80 80 88 140 140 140 44 156 156 156 44 127 127 127 90 90
 90 90 90 90 84 84 84 84 84 84 65 65 80 80 80 140 140 140 140 220
 220 220 220 220 127 127 127 90 90 90 90 90 90 84 84 84 84 84 84 239
 239 239 2 2 2 140 140 140 220 220 220 220 220 127 127 127 90 90 90 90
 90 90 84 84 84 84 84 239 239 239 239 2 2 2 2 95 22 220 220 220
 220 220 216 216 216 90 90 90 193 193 193 84 84 84 84 84 239 239 239 239
 2 2 2 95 95 95 220 220 220 220 220 216 216 216 193 193 193 193 193 193
 84 84 84 84 63 63 63 63 239 2 2 71 71 95 95 220 220 220 220 220
 216 216 216 193 193 193 193 193 193 193 84 63 63 63 63 63 63 63 25 25
 71 71 71 71 71 220 220 220 220 216 176 193 193 193 193 193 193 124 124 63
 63 63 63 63 63 63 63 25 25 71 71 71 71 71 71 87 87 169 176 176
 200 200 193 193 193 124 124 124 63 63 63 63 63 63 63 25 25 25 71 71
 71 71 71 87 87 87 169 176 176 176 200 200 75 75 75 75 75 75 63 63
 63 63 63 25 25 25 25 238 71 71 71 87 87 87 87 169 176 176 176 176
 164 75 75 75 75 75 75 63 63 63 63 63 25 25 25 25 238 71 71 71
 87 87 87 87 169 169 176 176 176 164 75 75 75 75 75 75 75 63 231 231
 25 25 25 25 9 9 9 91 91 91 87 87 77 77 77 176 164 164 164 164
 75 75 75 75 105 105 105 231 231 231 231 119 9 9 9 9 91 91 91 77
 77 77 77 77 118 118 118 164 164 164 164 105 105 105 105 105 231 231 231 231
 119 9 9 9 9 9 91 91 77 77 77 77 77 118 118 118 118 164 164 164
 105 105 105 105 231 231 231 231 231 119 9 9 9 9 73 73 73 73 77 77
 77 77 64 64 118 118 118 105 105 105 105 105 105 231 231 231 231 231 231 29
 9 9 9 73 73 73 73 73 77 77 64 64 64 64 64 64 105 105 105 105
 105 105 231 231 231 231 231 231 29 29 29 79 73 73 73 73 73 53 53 64
 64 64 64 64 64 122 105 105 105 105 105 231 231 231 231 231 231 228 149 149
 149 73 73 73 73 53 53 53 53 64 64 64 201 201 122 122 122 105 105 105
 231 184 184 35 35 35 228 149 149 149 149 79 73 53 53 53 53 53 64 201
 201 201 122 122 122 122 122 105 105 231 184 184 184 35 35 228 149 149 149 149
 149 53 53 53 53 53 53 78 201 201 201 122 122 122 122 122 122 184 184 184
 184 184 35 35 228 149 149 149 149 149 53 53 53 53 53 53 78 78 78 78
 78 122 122 122 122 122 184 184 184 184 184 35 35 228 149 149 149 149 149 4
 53 53 53 40 78 78 78 78 78 78 122 122 122 122 122 184 184 129 129 129
 129 129 129 149 149 147 147 147 4 4 166 40 40 40 78 78 78 78 78 78
 122 122 122 139 115 115 139 129 129 191 191 191 88 147 147 147 147 147 166 166
 166 40 40 40 40 78 78 78 78 8 8 8 8 8 139 139 139 191 191 191
 191 88 88 147 147 147 147 166 166 166 40 40 40 40 40 40 78 78 8 8
 8 8 8 139 139 191 191 191 191 191 88 88 88 147 147 147 166 166 166 40
 40 40 40 40 40 40 8 8 8 8 8 8 139 31 65 65 191 191 191 88
 88 88 88 147 156 156 156 156 40 40 40 40 40 40 40 8 8 8 8 8
 31 31 65 65 65 65 65 191 88 88 88 88 140 156 156 156 156 156 40 40
 40 40 40 90 90 8 8 31 31 31 31 92 65 65 65 65 65 88 88 88
 88 140 156 156 156 156 156 40 40 196 196 90 90 90 90 84 84 84 84 84
 92 92 65 65 65 65 80 88 140 140 140 156 156 156 156 156 156 127 196 196
 196 90 90 90 97 97 84 84 84 84 92 92 65 65 65 80 140 140 140 140
 220 220 220 220 220 127 196 196 196 196 90 90 90 97 97 84 84 84 84 92
 239 239 239 239 125 125 125 140 220 220 220 220 220 220 216 216 196 196 196 193
 193 193 97 97 84 84 84 84 239 239 239 239 239 2 125 125 171 220 220 220
 220 220 220 216 216 216 193 193 193 193 193 193 97 84 84 84 61 61 239 239
 239 239 125 125 171 171 220 220 220 220 220 220 216 216 216 193 193 193 193 193
 193 193 84 84 84 63 63 63 239 239 239 25 71 71 71 220 220 220 220 220
 220 216 216 216 193 193 193 193 193 193 193 84 63 63 63 63 63 63 63 25
 25 71 71 71 71 71 220 220 220 220 216 216 193 193 193 193 193 124 124 124
 124 63 63 63 63 63 63 25 25 25 71 71 71 71 71 177 177 177 177 216
 176 193 193 193 193 124 124 124 124 124 63 63 63 63 63 63 25 25 25 25
 71 71 71 71 177 177 177 177 176 176 176 193 193 193 124 124 124 124 124 63
 63 63 63 63 25 25 25 25 25 30 30 71 71 177 177 177 177 176 176 176
 176 193 75 75 124 124 124 124 63 63 63 63 25 25 25 25 25 25 30 30
 30 91 87 87 87 87 7 176 176 118 164 75 75 75 75 75 75 105 63 231
 231 25 25 25 25 25 9 9 91 91 91 91 77 77 77 7 118 118 118 118
 164 75 75 75 105 105 105 105 231 231 231 119 119 119 9 9 9 91 91 91
 91 77 77 77 77 118 118 118 118 118 164 105 105 105 105 105 105 231 231 231
 231 119 119 9 9 9 91 91 91 91 77 77 77 77 118 118 118 118 118 118
 105 105 105 105 105 105 231 231 231 231 119 119 29 9 9 91 91 91 91 77
 77 77 77 118 118 118 118 118 105 105 105 105 105 105 105 231 231 231 231 29
 29 29 29 29 73 73 73 73 73 77 77 64 64 64 64 118 118 105 105 105
 105 105 105 105 231 231 231 231 231 29 29 29 29 73 73 73 73 73 53 53
 64 64 64 64 64 64 122 105 105 105 105 105 231 231 231 231 231 231 149 149
 149 149 149 73 73 73 53 53 53 53 64 64 64 201 201 122 122 122 105 105
 105 231 184 184 184 184 35 149 149 149 149 149 73 73 53 53 53 53 53 64
 64 201 201 201 122 122 122 122 105 105 184 184 184 184 184 149 149 149 149 149
 149 149 53 53 53 53 53 53 78 201 201 201 122 122 122 122 122 122 184 184
 184 184 184 184 35 149 149 149 149 149 149 53 53 53 53 53 78 78 78 78
 78 78 122 122 122 122 122 184 184 184 184 184 184 149 149 149 149 149 149 149
 147 53 53 53 40 40 78 78 78 78 78 122 122 122 122 122 184 184 184 184
 184 129 129 149 149 149 147 147 147 147 166 166 166 40 40 40 78 78 78 78
 78 122 122 122 139 139 139 139 139 191 191 191 191 191 147 147 147 147 147 166
 166 166 40 40 40 40 40 40 78 78 8 8 8 8 139 139 139 139 191 191
 191 191 191 147 147 147 147 147 166 166 166 40 40 40 40 40 40 78 78 8
 8 8 8 139 139 139 139 191 191 191 191 191 88 147 147 147 147 166 166 166
 40 40 40 40 40 40 40 8 8 8 8 8 31 139 31 65 65 191 191 191
 191 88 88 147 147 156 156 156 156 40 40 40 40 40 40 40 40 8 8 31
 31 31 31 31 65 65 65 65 191 191 88 88 88 147 156 156 156 156 156 40
 40 40 40 40 40 40 31 31 31 31 31 31 92 65 65 65 65 65 191 88
 88 88 156 156 156 156 156 156 40 40 196 196 196 114 90 97 97 97 31 31
 31 92 92 65 65 65 65 191 88 88 140 156 156 156 156 156 156 156 196 196
 196 196 196 90 97 97 97 97 84 92 92 92 92 65 65 65 125 125 125 125
 220 220 220 220 220 220 220 196 196 196 196 196 90 97 97 97 97 84 92 92
 92 239 239 239 239 125 125 125 125 220 220 220 220 220 220 216 216 196 196 196
 193 193 193 97 97 97 84 84 61 239 239 239 239 239 125 125 125 171 220 220
 220 220 220 220 216 216 216 193 193 193 193 193 6 6 84 84 84 61 61 239
 239 239 239 125 125 171 171 171 220 220 220 220 220 216 216 216 193 193 193 193
 193 6 6 6 84 61 61 61 61 239 239 239 125 171 171 171 171 220 220 220
 220 220 216 216 193 193 193 193 193 193 193 6 6 61 61 68 68 68 68 25
 25 25 25 171 171 171 220 220 220 220 220 216 216 193 193 193 193 193 124 124
 124 124 68 68 68 68 68 68 25 25 25 25 71 71 71 177 177 177 177 177
 216 216 193 193 193 193 124 124 124 124 124 68 68 68 68 68 25 25 25 25
 25 30 30 30 177 177 177 177 177 177 176 193 193 193 193 124 124 124 124 124
 68 68 68 68 68 25 25 25 25 25 30 30 30 177 177 177 177 177 177 176
 193 193 193 193 124 124 124 124 124 68 68 68 68 25 25 25 25 25 25 30
 30 30 91 177 177 177 177 7 7 86 86 86 86 75 75 75 75 105 68 68
 68 231 25 25 25 25 25 25 30 91 91 91 91 91 77 7 7 7 86 86
 86 86 86 75 105 105 105 105 105 231 231 119 119 119 119 119 9 91 91 91
 91 91 91 77 7 7 7 118 118 118 86 86 105 105 105 105 105 105 231 231
 231 119 119 119 119 29 91 91 91 91 91 91 77 7 7 86 118 118 118 118
 118 105 105 105 105 105 105 231 231 231 231 119 119 29 29 29 91 91 91 91
 91 77 7 7 86 118 118 118 118 105 105 105 105 105 105 105 231 231 231 231
 29 29 29 29 29 91 91 91 91 91 77 7 7 86 86 163 163 163 105 105
 105 105 105 105 105 231 231 231 231 29 29 29 29 29 73 73 73 73 91 53
 53 64 64 64 64 163 163 105 105 105 105 105 105 105 184 184 184 231 29 149
 149 149 149 149 73 73 73 53 53 53 53 64 64 64 201 201 122 105 105 105
 105 105 105 184 184 184 184 149 149 149 149 149 149 149 73 53 53 53 53 53
 213 213 201 201 201 122 122 122 122 105 105 184 184 184 184 184 149 149 149 149
 149 149 149 149 53 53 53 53 213 213 78 201 201 78 122 122 122 122 105 184
 184 184 184 184 184 149 149 149 149 149 149 149 149 53 53 53 213 213 213 78
 78 78 78 122 122 122 122 122 184 184 184 184 184 184 149 149 149 149 149 149
 149 147 166 166 40 40 40 78 78 78 78 78 122 122 122 122 139 139 184 184
 184 184 184 149 149 149 149 147 147 147 147 166 166 166 40 40 40 40 78 78
 78 78 122 122 139 139 139 139 139 139 191 191 191 191 191 147 147 147 147 147
 166 166 166 40 40 40 40 40 40 78 78 139 139 139 139 139 139 139 139 191
 191 191 191 191 147 147 147 147 147 166 166 166 40 40 40 40 40 40 40 40
 139 139 139 139 139 139 139 139 191 191 191 191 191 147 147 147 147 243 166 166
 166 40 40 40 40 40 40 40 40 139 139 31 31 31 139 31 139 191 191 191
 191 191 191 147 147 147 243 243 166 166 40 40 40 40 40 40 40 40 31 31
 31 31 31 31 31 65 65 65 191 191 191 191 88 147 147 156 156 156 156 156
 40 40 40 40 40 114 114 31 31 31 31 31 31 92 92 65 65 65 45 45
 88 131 131 156 156 156 156 156 156 40 40 114 114 114 114 114 114 31 31 31
 31 31 92 92 92 65 65 45 45 45 131 131 156 156 156 156 156 156 156 172
 172 172 114 114 114 114 97 97 97 92 92 92 92 92 92 92 45 45 125 125
 125 220 220 220 220 220 220 220 172 172 172 172 114 114 97 97 97 97 92 92
 92 92 92 239 239 125 125 125 125 125 125 220 220 220 220 220 216 216 196 172
 172 193 193 6 6 97 97 84 92 61 61 239 239 239 125 125 125 125 171 171
 220 220 220 220 220 216 216 216 193 193 193 193 6 6 6 6 84 61 61 61
 61 239 239 125 125 125 171 171 171 220 220 220 220 220 216 216 216 193 193 193
 193 193 6 6 6 6 61 61 61 61 61 239 125 125 171 171 171 171 171 220
 220 220 220 216 216 193 193 193 193 193 193 6 6 6 61 61 68 68 68 68
 68 25 25 171 171 171 171 171 220 220 220 220 216 216 193 193 193 193 193 124
 124 124 6 68 68 68 68 68 68 25 25 25 25 171 171 171 177 177 177 177
 177 216 216 193 193 193 193 124 124 124 124 124 68 68 68 68 68 68 25 25
 25 25 30 30 30 177 177 177 177 177 177 176 193 193 193 193 124 124 124 124
 124 68 68 68 68 68 25 25 25 25 25 30 30 30 177 177 177 177 177 7
 7 86 86 193 193 124 124 124 124 124 68 68 68 68 68 25 25 25 25 25
 30 30 30 91 177 177 177 177 7 7 86 86 86 86 124 124 124 124 105 68
 68 52 52 52 25 25 25 25 25 30 91 91 91 91 91 7 7 7 7 86
 86 86 86 86 105 105 105 105 105 105 52 52 52 52 119 119 119 9 91 91
 91 91 91 91 7 7 7 7 86 86 86 86 86 105 105 105 105 105 105 52
 52 52 52 119 119 119 29 91 91 91 91 91 91 7 7 7 7 86 86 86
 86 86 105 105 105 105 105 105 105 52 52 52 119 29 29 29 29 91 91 91
 91 91 7 7 7 86 86 86 86 86 86 105 105 105 105 105 105 105 231 231
 231 29 29 29 29 29 91 91 91 91 91 7 7 7 86 163 163 163 86 86
 105 105 105 105 105 105 105 231 231 231 29 29 29 29 29 91 91 91 91 91
 53 53 7 163 163 163 163 86 105 105 105 105 105 105 105 184 184 184 184 29
 149 149 149 149 149 73 73 73 53 53 213 213 213 213 163 163 14 14 14 105
 105 105 105 105 184 184 184 184 184 149 149 149 149 149 149 73 111 53 53 213
 213 213 213 213 201 14 14 14 14 14 105 105 184 184 184 184 184 149 149 149
 149 149 149 149 149 111 53 53 213 213 213 213 213 201 14 14 14 14 14 105
 184 184 184 184 184 184 184 149 149 149 149 149 149 111 111 111 213 213 213 213
 213 78 78 78 14 14 14 14 14 184 184 184 184 184 184 149 149 149 149 149
 149 149 147 243 243 243 213 213 213 40 78 78 78 14 14 14 14 139 139 139
 139 184 184 184 149 149 149 149 147 147 147 147 243 243 243 40 40 40 40 40
 78 78 14 14 14 139 139 139 139 139 139 139 191 182 182 182 147 147 210 210
 210 243 243 243 243 40 40 40 40 40 40 217 139 139 139 139 139 139 139 139
 191 191 191 182 182 147 147 210 210 210 243 243 243 243 40 40 40 40 40 40
 217 139 139 139 139 139 139 139 139 191 191 191 191 191 147 147 210 210 210 243
 243 243 40 40 40 40 40 40 40 40 139 139 139 139 139 139 31 139 191 191
 191 191 191 191 147 210 210 243 243 243 243 40 40 40 40 40 40 114 114 144
 144 31 31 31 31 31 92 65 191 45 45 45 131 131 210 210 156 156 156 156
 156 40 40 40 114 114 114 114 31 31 31 31 31 31 92 92 92 65 45 45
 45 131 131 131 156 156 156 156 156 156 40 40 114 114 114 114 114 114 31 31
 31 31 92 92 92 92 92 45 45 45 131 131 131 219 156 156 156 156 156 172
 172 172 172 114 114 114 114 97 97 97 92 92 92 92 92 92 92 45 45 125
 125 125 220 220 220 220 220 220 172 172 172 172 172 114 114 6 6 6 6 92
 92 92 92 92 92 92 125 125 125 125 125 125 220 220 220 220 220 216 172 172
 172 172 114 114 6 6 6 6 92 92 61 61 92 239 239 125 125 125 125 171
 171 220 220 220 220 220 216 216 172 172 193 193 193 6 6 6 6 6 61 61
 61 61 61 239 125 125 125 171 171 171 171 220 220 220 220 216 216 216 193 193
 193 193 6 6 6 6 6 61 61 61 61 61 61 125 125 171 171 171 171 171
 220 220 220 220 216 216 193 193 193 193 193 6 6 6 6 61 61 68 68 68
 68 68 25 25 171 171 171 171 171 220 220 220 220 216 216 193 193 193 193 193
 124 6 6 6 68 68 68 68 68 68 68 25 25 25 171 171 171 171 107 177
 177 177 216 216 193 193 193 193 124 124 124 124 68 68 68 68 68 68 68 25
 25 25 25 30 30 30 107 107 177 177 177 7 7 161 161 161 161 161 124 124
 124 68 68 68 68 68 68 68 25 25 25 25 30 30 30 107 107 107 107 7
 7 7 86 86 161 161 161 124 124 124 68 68 68 68 68 68 25 25 25 25
 25 30 30 30 107 107 107 107 7 7 7 86 86 86 86 86 124 124 105 105
 68 68 52 52 52 25 25 25 25 25 30 91 91 91 91 91 7 7 7 7
 86 86 86 86 86 86 105 105 105 52 52 52 52 52 52 119 119 119 119 91
 91 91 91 91 91 7 7 7 7 86 86 86 86 86 86 105 105 105 105 52
 52 52 52 52 24 119 119 29 91 91 91 91 91 91 7 7 7 7 86 86
 86 86 86 86 105 105 105 105 52 52 52 52 52 52 29 29 29 29 91 91
 91 91 91 7 7 7 7 86 86 86 86 86 105 105 105 105 105 105 52 52
 52 52 29 29 29 29 29 91 91 91 91 91 7 7 7 86 163 163 163 86
 86 105 105 105 105 105 105 52 52 52 52 29 29 29 29 29 91 91 91 91
 91 7 7 7 163 163 163 163 86 14 105 105 105 105 105 105 184 184 184 184
 29 197 197 197 197 197 91 91 111 111 111 213 213 213 213 163 163 14 14 14
 14 105 70 70 70 184 184 184 184 197 197 197 197 197 197 197 111 111 111 111
 213 213 213 213 213 163 14 14 14 14 14 70 70 70 184 184 184 184 197 197