# vtk DataFile Version 2.0
Data set from ImportExport Version 6.5.171.b0b162591
ASCII

DATASET RECTILINEAR_GRID
DIMENSIONS 30 30 30
X_COORDINATES 30 float
-1.250000 1.250000 3.750000 6.250000 8.750000 11.250000 13.750000 16.250000 18.750000 21.250000 23.750000 26.250000 28.750000 31.250000 33.750000 36.250000 38.750000 41.250000 43.750000 46.250000 48.750000 
51.250000 53.750000 56.250000 58.750000 61.250000 63.750000 66.250000 68.750000 71.250000 
Y_COORDINATES 30 float
-1.250000 1.250000 3.750000 6.250000 8.750000 11.250000 13.750000 16.250000 18.750000 21.250000 23.750000 26.250000 28.750000 31.250000 33.750000 36.250000 38.750000 41.250000 43.750000 46.250000 48.750000 
51.250000 53.750000 56.250000 58.750000 61.250000 63.750000 66.250000 68.750000 71.250000 
Z_COORDINATES 30 float
-1.250000 1.250000 3.750000 6.250000 8.750000 11.250000 13.750000 16.250000 18.750000 21.250000 23.750000 26.250000 28.750000 31.250000 33.750000 36.250000 38.750000 41.250000 43.750000 46.250000 48.750000 
51.250000 53.750000 56.250000 58.750000 61.250000 63.750000 66.250000 68.750000 71.250000 
CELL_DATA 24389
SCALARS FeatureIds int 1
LOOKUP_TABLE default
 20 20 20 201 201 95 95 95 95 95 42 42 42 42 42 42 19 19 19 19
 19 19 166 166 166 166 196 20 20 20 20 20 20 20 95 95 95 95 95 42
 42 42 42 42 42 224 19 19 19 19 19 166 196 196 196 196 20 20 20 20
 20 127 127 127 95 95 95 39 39 39 39 39 39 224 224 224 224 19 19 19
 166 196 196 196 196 20 20 20 20 20 127 127 127 95 173 173 173 39 39 39
 39 39 224 224 224 224 224 19 35 35 196 196 196 196 20 20 20 37 37 37
 37 37 37 173 173 173 173 39 39 39 39 224 224 224 224 224 224 35 35 35
 35 35 196 20 20 237 37 37 37 37 37 37 173 173 173 173 173 39 39 224
 224 224 224 224 224 224 35 35 35 35 35 117 117 20 237 237 237 37 37 37
 37 173 173 173 173 173 39 39 224 224 224 224 224 224 224 143 143 143 143 143
 117 117 117 237 237 237 237 233 233 204 173 102 102 102 173 173 173 224 224 224
 224 224 224 224 143 143 143 143 143 117 117 117 237 237 237 233 233 233 204 204
 102 102 102 102 102 102 224 224 224 224 224 194 143 143 143 143 143 143 117 117
 117 237 237 233 233 233 233 204 204 204 204 102 102 102 26 26 26 194 194 194
 194 194 143 143 143 143 143 117 117 117 43 233 233 233 233 204 204 204 204 204
 204 204 26 26 26 26 194 194 194 194 194 194 143 143 143 143 143 117 117 43
 43 43 233 233 204 204 204 204 204 204 204 26 26 26 26 26 194 194 194 194
 194 143 143 143 143 143 43 43 43 43 43 43 204 204 204 204 204 204 204 204
 26 26 26 26 26 26 194 194 194 194 143 143 143 24 24 43 43 43 43 43
 43 43 204 204 204 204 204 162 162 162 26 26 26 26 26 202 202 202 202 202
 75 75 24 24 43 43 43 43 43 43 43 204 204 204 204 162 162 162 162 26
 26 26 26 26 202 202 202 202 75 75 75 75 24 43 43 114 114 114 43 43
 204 204 204 162 162 162 162 162 162 26 26 26 213 202 202 202 202 75 75 75
 75 75 114 114 84 114 114 114 73 73 73 73 162 162 162 162 162 162 26 213
 213 213 213 213 202 75 75 75 75 75 75 84 84 84 84 84 84 73 73 73
 73 162 162 162 162 162 162 162 213 213 213 213 213 213 29 75 75 75 75 84
 84 84 84 84 84 84 73 73 73 73 73 184 162 162 162 162 162 213 213 213
 213 213 29 29 29 75 75 152 84 84 84 215 215 215 73 73 73 73 73 73
 184 184 12 162 162 112 213 213 213 213 213 29 29 29 152 152 152 140 140 140
 140 215 215 139 139 139 139 139 139 12 12 12 112 112 112 112 213 213 213 232
 232 232 232 145 145 140 140 140 140 140 140 215 139 139 139 139 139 139 12 12
 12 112 112 112 112 112 232 232 232 232 232 232 145 145 145 140 140 140 140 140
 139 139 139 139 139 139 139 12 12 12 112 112 112 112 112 232 232 232 232 232
 232 145 145 145 145 140 140 140 201 201 139 139 139 139 139 22 12 12 112 112
 112 112 112 112 232 232 232 232 232 232 232 145 145 145 145 140 201 201 201 201
 107 107 107 22 22 22 22 112 112 112 112 112 112 232 232 232 232 232 232 232
 145 163 163 163 201 201 201 201 201 107 107 107 22 22 22 22 22 112 112 112
 112 112 232 232 232 232 232 232 232 163 163 163 163 201 201 201 201 201 201 107
 107 22 22 22 22 22 112 112 112 112 112 232 232 232 232 232 232 163 163 163
 163 163 201 201 201 201 201 201 107 107 95 22 22 22 22 112 112 112 112 19
 19 19 19 19 19 166 166 166 163 163 163 201 201 201 201 201 201 107 95 95
 95 22 42 42 42 42 112 19 19 19 19 19 19 19 166 166 166 166 163 163
 20 20 20 20 201 201 95 95 95 95 42 42 42 42 42 42 42 19 19 19
 19 19 19 166 166 166 166 196 20 20 20 20 20 20 20 95 95 95 95 42
 42 42 42 42 42 42 224 224 19 19 19 19 166 166 166 166 196 20 20 20
 20 20 20 127 127 95 95 95 39 39 39 39 39 39 224 224 224 224 19 19
 19 166 166 196 196 196 20 20 20 20 20 37 37 37 173 173 173 173 39 39
 39 39 39 224 224 224 224 224 224 35 35 35 35 35 20 20 20 20 37 37
 37 37 37 37 173 173 173 173 39 39 39 39 224 224 224 224 224 224 35 35
 35 35 35 20 20 20 237 37 37 37 37 37 37 173 173 173 173 173 39 39
 224 224 224 224 224 224 224 35 35 35 35 35 35 20 20 237 237 237 37 37
 37 37 173 173 173 173 173 39 39 224 224 224 224 224 224 224 35 35 35 35
 35 35 117 237 237 237 237 237 37 37 204 173 102 102 102 173 173 173 224 224
 224 224 224 224 224 143 143 143 143 143 117 117 237 237 237 237 237 237 204 204
 204 102 102 102 173 173 125 224 224 224 224 224 224 143 143 143 143 143 143 117
 117 237 237 237 237 237 233 204 204 204 204 204 204 204 125 26 26 194 194 194
 194 194 194 143 143 143 143 143 143 117 117 43 43 237 237 204 204 204 204 204
 204 204 204 26 26 26 26 194 194 194 194 194 194 143 143 143 143 143 117 43
 43 43 43 43 204 204 204 46 204 204 204 204 26 26 26 26 26 194 194 194
 194 194 143 143 143 143 24 43 43 43 43 43 43 204 204 204 204 204 204 204
 204 26 26 26 26 26 26 194 194 194 194 143 24 24 24 24 43 43 43 43
 43 43 43 204 204 204 204 204 162 162 162 26 26 26 26 26 202 202 202 202
 75 75 24 24 24 43 43 43 43 43 43 43 204 204 204 204 162 162 162 162
 26 26 26 26 26 202 202 202 202 75 75 75 24 24 43 43 114 114 114 114
 43 204 204 204 162 162 162 162 162 162 26 26 26 26 202 202 202 75 75 75
 75 75 82 82 114 84 114 114 114 114 73 73 204 162 162 162 162 162 162 26
 26 213 213 213 29 29 29 75 75 75 75 82 82 84 84 84 84 84 84 73
 73 73 162 162 162 162 162 162 162 213 213 213 213 29 29 29 75 75 75 75
 82 82 84 84 84 84 84 73 73 73 73 184 184 184 162 162 162 162 213 213
 213 213 29 29 29 29 75 152 152 82 84 84 215 215 215 215 139 139 139 139
 184 184 184 12 12 12 112 112 213 213 213 29 29 29 29 152 152 152 152 140
 140 140 215 215 139 139 139 139 139 139 12 12 12 12 12 112 112 112 213 232
 232 29 29 29 152 152 152 140 140 140 140 140 215 139 139 139 139 139 139 12
 12 12 12 112 112 112 112 232 232 232 232 232 232 145 145 145 145 140 140 140
 140 215 139 139 139 139 139 12 12 12 12 112 112 112 112 112 232 232 232 232
 232 232 145 145 145 145 140 140 140 201 201 139 139 139 139 139 12 12 12 12
 112 112 112 112 112 232 232 232 232 232 232 145 145 145 145 145 140 201 201 201
 199 199 149 149 22 22 22 22 112 112 112 112 112 112 232 232 232 232 232 232
 232 145 145 145 145 201 201 201 201 201 201 149 149 22 22 22 22 22 112 112
 112 112 112 232 232 232 232 232 232 232 163 163 163 163 201 201 201 201 201 201
 149 149 149 22 22 22 22 112 112 112 112 112 232 232 232 232 232 232 163 163
 163 163 163 201 201 201 201 201 201 149 149 149 22 22 22 22 112 112 112 112
 112 19 19 232 232 232 166 166 166 163 163 163 201 201 201 201 201 201 149 149
 149 95 22 42 42 42 42 112 112 19 19 19 19 19 19 166 166 166 166 163
 163 20 20 20 20 201 201 201 95 95 42 42 42 42 42 42 42 42 33 33
 33 33 33 33 166 166 166 166 166 20 20 20 20 20 20 20 20 95 95 42
 42 42 42 42 94 94 94 33 33 33 33 33 33 166 166 166 166 20 20 20
 20 20 20 20 20 20 95 95 39 39 39 39 94 94 94 94 224 224 222 33
 33 35 35 166 166 166 20 20 20 20 20 20 37 37 37 173 173 173 173 39
 39 94 94 94 224 224 224 222 222 222 35 35 35 35 35 144 20 20 20 37
 37 37 37 37 37 173 173 173 173 39 39 94 94 224 224 224 222 224 224 35
 35 35 35 35 144 144 20 237 37 37 37 37 37 37 173 173 173 173 173 39
 94 94 224 224 224 224 224 224 35 35 35 35 35 35 148 20 237 237 237 37
 37 37 37 173 173 173 173 173 39 94 222 222 222 224 224 224 224 35 35 35
 35 35 35 148 237 237 237 237 237 37 37 204 173 102 102 102 125 125 125 222
 222 222 224 224 224 224 143 143 143 143 143 148 237 237 237 237 237 237 237 204
 204 204 102 102 102 125 125 125 125 222 222 224 224 194 143 143 143 143 143 143
 143 237 237 237 237 237 237 204 204 204 204 204 204 102 125 125 125 26 26 194
 194 194 194 194 143 143 143 143 143 143 237 237 43 43 43 43 204 204 204 204
 204 204 204 204 26 26 26 26 194 194 194 194 194 194 143 143 143 143 143 143
 43 43 43 43 43 204 204 204 204 204 204 204 204 26 26 26 26 26 194 194
 194 194 194 143 143 24 24 24 24 43 43 43 43 43 204 204 204 204 204 204
 204 204 26 26 26 26 26 26 194 194 194 194 143 24 24 24 24 24 43 43
 43 43 43 43 204 204 204 204 204 162 162 162 26 26 26 26 26 202 202 202
 202 75 75 24 24 24 24 43 43 43 43 43 43 204 204 204 204 162 162 162
 162 26 26 26 26 26 202 202 202 75 75 75 75 24 24 24 43 114 114 114
 114 114 204 204 204 162 162 162 162 162 162 26 26 26 26 202 202 29 75 75
 75 75 75 24 82 114 84 114 114 84 84 64 64 64 162 162 162 162 162 162
 26 26 26 26 202 29 29 29 75 75 75 75 82 82 82 84 84 84 84 84
 64 64 184 184 184 162 162 162 162 162 213 213 213 29 29 29 29 29 75 75
 75 82 82 82 84 84 84 84 84 73 184 184 184 184 184 184 162 162 162 213
 213 213 29 29 29 29 29 29 152 152 152 82 84 84 215 215 215 139 139 139
 184 184 184 184 184 184 162 112 161 161 213 29 29 29 29 29 152 152 152 152
 140 140 140 215 215 139 139 139 139 139 184 184 12 12 12 12 112 161 161 161
 232 232 29 29 29 152 152 152 152 140 140 140 140 215 139 139 139 139 139 12
 12 12 12 12 112 112 112 161 232 232 232 232 232 232 145 145 145 145 140 140
 140 140 139 139 139 139 139 139 12 12 12 12 12 112 112 112 112 232 232 232
 232 232 232 145 145 145 145 140 140 140 199 199 199 199 139 139 139 12 12 12
 12 112 112 112 112 112 232 232 232 232 232 232 145 145 145 145 145 140 199 199
 199 199 199 149 149 149 22 22 22 12 112 112 112 112 112 232 232 232 232 232
 232 145 145 145 145 145 201 201 201 199 199 199 149 149 149 22 22 22 22 112
 112 112 112 112 232 232 232 232 232 232 232 163 163 163 163 201 201 201 201 201
 149 149 149 149 22 22 22 22 112 112 112 112 112 232 232 232 232 232 232 163
 163 163 163 163 201 201 201 201 201 201 149 149 149 149 22 22 42 42 112 112
 112 33 33 33 33 33 232 166 166 166 163 163 163 201 201 201 201 201 201 149
 149 149 149 22 42 42 42 42 112 33 33 33 33 33 33 33 166 166 166 166
 163 163 20 20 20 20 201 201 201 95 225 225 42 42 42 42 94 94 33 33
 33 33 33 33 33 96 96 166 166 166 20 20 20 20 20 77 77 77 225 225
 225 42 42 42 94 94 94 94 33 33 33 33 33 33 96 96 96 96 144 20
 20 20 20 20 77 77 77 225 225 225 225 39 94 94 94 94 94 33 33 33
 33 33 33 96 96 96 96 144 144 20 20 20 77 77 77 77 225 225 225 225
 39 94 94 94 94 94 222 222 222 222 251 35 35 35 35 35 144 144 144 20
 77 77 77 37 37 225 225 225 225 173 94 94 94 94 222 222 222 222 222 222
 35 35 35 35 35 144 144 144 237 37 37 37 37 37 37 173 173 173 173 125
 94 94 94 222 222 222 222 222 222 35 35 35 35 35 148 148 148 237 237 237
 37 37 37 37 173 173 173 125 125 125 125 222 222 222 222 222 222 35 35 35
 35 35 35 148 148 148 154 237 237 237 37 37 204 173 102 125 125 125 125 125
 125 222 222 222 222 222 35 35 35 35 35 35 148 148 154 154 237 237 237 178
 204 204 204 102 125 125 125 125 125 125 222 222 48 48 48 143 143 143 143 143
 143 148 148 154 237 237 237 178 178 204 204 204 204 204 125 125 125 125 125 48
 48 48 48 48 194 143 143 143 143 143 148 148 154 43 43 178 178 178 204 204
 204 204 204 125 125 125 26 26 26 48 48 48 194 194 194 143 143 143 143 24
 24 43 43 43 178 178 178 204 204 204 204 204 204 204 26 26 26 26 116 116
 194 194 194 194 143 143 24 24 24 24 43 43 43 43 178 178 204 204 204 204
 204 204 162 26 26 26 26 116 116 116 194 194 194 24 24 24 24 24 24 43
 43 43 43 43 178 204 204 204 204 204 162 162 162 26 26 26 26 116 202 202
 202 202 75 24 24 24 24 24 43 43 43 43 43 178 204 204 204 204 162 162
 162 162 26 26 26 26 116 202 202 202 75 75 75 24 24 24 24 43 114 114
 114 114 64 64 64 64 64 162 162 162 162 162 172 172 172 172 202 29 29 29
 75 75 75 24 24 82 82 84 84 84 84 64 64 64 64 64 184 162 162 162
 162 172 172 172 172 29 29 29 29 29 75 75 75 82 82 82 84 84 84 84
 64 64 64 64 184 184 184 184 162 162 172 172 172 172 29 29 29 29 29 75
 75 82 82 82 82 84 84 84 84 64 64 64 184 184 184 184 184 184 162 172
 172 172 29 29 29 29 29 29 29 152 152 82 82 82 84 215 215 215 139 139
 139 184 184 184 184 184 184 161 161 161 161 161 29 29 29 29 29 152 152 152
 152 152 82 140 215 215 139 139 139 139 184 184 184 12 12 12 161 161 161 161
 161 161 29 29 29 29 152 152 152 152 152 140 140 140 215 139 139 139 139 139
 12 12 12 12 12 160 161 161 161 161 232 232 232 232 232 145 145 145 152 152
 140 140 140 199 139 139 139 139 139 12 12 12 12 12 160 160 161 161 161 232
 232 232 232 232 145 145 145 145 145 140 199 199 199 199 199 149 139 149 12 12
 12 12 12 160 160 160 161 232 232 232 232 232 232 145 145 145 187 187 140 199
 199 199 199 199 149 149 149 22 22 12 12 160 160 160 160 160 232 232 232 232
 232 232 232 145 187 187 187 187 201 199 199 199 199 149 149 149 22 22 22 160
 160 160 160 160 160 232 232 232 232 232 232 232 163 163 163 163 201 201 201 199
 199 149 149 149 149 149 22 22 160 160 160 160 160 33 33 33 33 232 232 232
 232 163 163 163 163 201 201 201 201 201 149 149 149 149 149 22 22 42 160 160
 160 33 33 33 33 33 33 33 166 166 163 163 163 163 201 201 201 201 201 149
 149 149 149 149 22 42 42 42 42 160 33 33 33 33 33 33 33 166 166 166
 166 163 163 20 20 20 20 77 77 77 77 225 225 131 131 42 94 94 94 33
 33 33 33 33 33 33 96 96 96 96 96 144 20 20 20 77 77 77 77 77
 225 225 225 42 94 94 94 94 33 33 33 33 33 33 33 96 96 96 96 144
 144 144 144 77 77 77 77 77 77 225 225 225 225 94 94 94 94 94 33 33
 33 33 251 251 96 96 96 96 144 144 144 144 77 77 77 77 77 77 225 225
 225 225 94 94 94 94 94 222 222 222 251 251 251 96 96 96 144 144 144 144
 144 77 77 77 77 77 225 225 225 225 225 94 94 94 94 94 222 222 222 251
 251 251 35 35 35 144 144 144 144 144 77 77 77 77 77 225 225 225 225 125
 125 125 94 94 222 222 222 222 222 251 35 35 35 35 35 148 148 148 154 154
 237 77 37 37 225 225 173 125 125 125 125 125 125 222 222 222 222 222 35 35
 35 35 35 148 148 148 148 154 154 237 237 37 178 225 225 125 125 125 125 125
 125 125 222 222 222 222 48 48 35 35 35 35 148 148 148 154 154 154 237 178
 178 178 204 204 125 125 125 125 125 125 125 48 48 48 48 48 48 89 143 89
 143 148 148 148 154 154 178 178 178 178 178 204 204 204 125 125 125 125 125 125
 48 48 48 48 48 48 48 89 89 89 148 148 148 154 154 178 178 178 178 178
 204 204 204 204 125 125 125 125 51 48 48 48 48 48 48 48 143 89 143 24
 148 148 154 178 178 178 178 178 178 204 204 204 204 125 125 125 51 26 116 116
 116 48 48 48 194 89 24 24 24 24 24 43 43 178 178 178 178 178 204 204
 204 204 204 162 26 26 26 116 116 116 116 48 48 48 24 24 24 24 24 24
 43 43 43 178 178 178 178 204 204 204 204 162 162 162 172 172 116 116 116 116
 116 202 202 75 24 24 24 24 24 43 43 43 43 43 178 178 64 64 64 162
 162 162 162 172 172 172 172 116 116 116 202 75 75 75 24 24 24 24 43 114
 114 114 114 64 64 64 64 64 64 162 162 162 172 172 172 172 172 116 29 29
 29 75 75 75 24 24 82 82 82 84 84 64 64 64 64 64 64 64 184 184
 162 172 172 172 172 172 172 29 29 29 29 75 75 82 82 82 82 82 84 84
 64 64 64 64 64 64 184 184 184 184 172 172 172 172 172 29 29 29 29 29
 29 75 82 82 82 82 82 84 84 64 64 64 64 64 184 184 184 184 184 184
 172 172 172 98 29 29 29 29 29 29 152 152 82 82 82 84 215 215 241 241
 64 64 184 184 184 184 184 184 161 161 161 161 161 105 29 29 29 66 66 152
 152 152 82 82 140 215 215 241 241 241 241 184 184 184 184 12 12 161 161 161
 161 161 161 105 29 66 66 66 66 152 152 152 140 140 167 167 241 241 241 241
 184 184 12 12 12 160 160 161 161 161 161 161 105 232 66 66 66 66 187 187
 187 140 167 167 167 167 167 241 241 241 12 12 12 12 160 160 160 161 161 161
 161 232 232 232 66 66 187 187 187 187 187 167 167 167 167 167 149 149 149 12
 12 12 160 160 160 160 160 161 161 232 232 232 232 232 187 187 187 187 187 187
 199 199 199 199 199 149 149 149 22 12 12 160 160 160 160 160 160 160 232 232
 232 232 232 187 187 187 187 187 187 201 199 199 199 199 149 149 149 149 7 7
 160 160 160 160 160 160 33 33 33 232 232 232 187 187 187 187 187 187 201 201
 199 199 149 149 149 149 149 7 7 7 160 160 160 160 33 33 33 33 33 33
 232 232 163 163 163 163 201 201 201 201 199 149 149 149 149 149 7 7 7 160
 160 160 33 33 33 33 33 33 33 33 166 163 163 163 163 201 201 201 201 201
 149 149 149 149 149 7 7 7 160 160 160 33 33 33 33 33 33 33 96 96
 96 166 163 163 20 20 77 77 77 77 77 77 225 131 131 131 131 131 131 131
 33 33 33 33 33 33 33 96 96 96 96 96 144 144 20 77 77 77 77 77
 77 225 131 131 131 131 131 94 94 30 30 33 33 33 33 96 96 96 96 96
 144 144 144 144 77 77 77 77 77 77 225 225 225 131 131 131 94 94 30 30
 33 33 251 251 251 96 96 96 96 144 144 144 144 77 77 77 77 77 77 225
 225 225 225 94 94 94 94 30 30 222 251 251 251 251 251 96 96 144 144 144
 144 144 77 77 77 77 77 77 225 225 225 225 125 94 94 94 94 222 222 251
 251 251 251 251 227 227 144 144 144 144 144 77 77 77 77 77 225 225 225 225
 125 125 125 125 125 222 222 222 222 251 251 251 227 227 227 227 148 148 148 148
 154 77 77 77 77 225 225 225 125 125 125 125 125 125 222 222 222 222 251 251
 227 227 227 227 148 148 148 148 154 154 154 77 77 178 225 225 125 125 125 125
 125 125 125 222 222 222 48 48 48 89 89 89 89 148 148 148 148 154 154 154
 178 178 178 178 125 125 125 125 125 125 125 125 48 48 48 48 48 48 89 89
 89 89 148 148 148 154 154 178 178 178 178 178 178 204 125 125 125 125 125 125
 51 48 48 48 48 48 48 89 89 89 89 207 148 148 154 178 178 178 178 178
 178 178 204 204 125 125 125 125 51 51 51 48 48 48 48 48 89 89 89 207
 207 207 207 154 178 178 178 178 178 178 178 204 204 204 125 125 51 51 51 116
 116 48 48 48 48 89 89 207 207 207 207 207 207 178 178 178 178 178 178 178
 204 204 204 125 38 38 51 51 116 116 116 116 48 48 48 89 207 207 207 207
 207 207 178 178 178 178 178 178 178 64 216 216 38 38 38 38 172 116 116 116
 116 116 48 48 75 24 24 24 24 24 207 178 178 178 178 178 178 64 64 64
 64 64 38 38 172 172 172 172 116 116 116 116 29 75 75 24 24 24 24 43
 114 114 114 64 64 64 64 64 64 64 64 64 172 172 172 172 172 172 98 29
 29 29 29 29 75 24 24 82 82 82 84 84 64 64 64 64 64 64 64 64
 64 172 172 172 172 172 172 98 98 29 29 29 29 75 82 82 82 82 82 84
 84 64 64 64 64 64 64 64 184 184 18 172 172 172 172 98 98 98 98 29
 29 29 75 82 82 82 82 82 84 84 64 64 64 64 64 64 184 184 184 18
 18 18 18 172 98 98 98 98 29 66 66 66 152 82 82 82 84 215 241 241
 241 241 64 64 184 184 184 184 18 18 161 161 161 161 105 105 105 66 66 66
 66 152 152 82 82 140 241 241 241 241 241 241 184 184 184 184 184 18 18 161
 161 161 161 105 105 105 66 66 66 66 152 152 152 140 140 241 241 241 241 241
 241 241 184 12 12 160 160 160 161 161 161 161 105 105 105 66 66 66 66 187
 187 187 187 167 167 167 167 241 241 241 241 241 12 12 160 160 160 160 161 161
 161 161 105 232 66 66 66 187 187 187 187 187 167 167 167 167 167 241 241 241
 10 12 160 160 160 160 160 160 161 161 161 232 232 232 232 187 187 138 187 187
 187 199 199 167 167 167 149 149 149 10 7 7 160 160 160 160 160 160 160 33
 232 232 232 232 187 187 187 187 187 187 201 199 199 199 149 149 149 149 10 7
 7 7 160 160 160 160 160 33 33 33 33 209 209 187 187 187 187 187 187 201
 201 199 199 149 149 149 149 10 7 7 7 7 160 160 160 33 33 33 33 33
 209 209 209 187 187 187 187 187 201 201 201 199 149 149 149 149 10 7 7 7
 7 160 160 33 33 33 33 33 33 33 209 209 96 96 163 163 201 177 201 201
 201 149 149 149 149 10 7 7 7 131 131 160 33 33 33 33 33 33 33 96
 96 96 96 96 163 177 177 177 77 77 77 77 77 131 131 131 131 131 131 131
 131 30 30 30 33 33 33 209 96 96 96 96 96 144 144 188 188 77 77 77
 77 77 225 131 131 131 131 131 131 131 30 30 30 33 33 251 251 96 96 96
 96 144 144 144 188 188 77 77 77 77 77 225 225 131 131 131 131 131 131 30
 30 30 251 251 251 251 251 96 96 96 144 144 144 188 188 77 77 77 77 77
 225 225 225 131 131 131 131 131 30 30 30 251 251 251 251 251 96 96 144 144
 144 144 188 188 77 77 77 77 234 234 234 234 234 125 125 94 94 30 30 222
 251 251 251 251 227 227 227 227 144 144 144 188 188 77 77 77 77 234 234 234
 234 125 125 125 125 125 222 222 222 251 251 251 251 227 227 227 227 148 148 148
 148 154 77 77 77 77 234 234 234 234 125 125 125 125 125 222 222 222 251 251
 251 227 227 227 227 227 148 148 148 148 154 154 77 77 77 234 234 234 125 125
 125 125 125 125 51 48 48 48 251 251 89 89 89 89 148 148 148 148 154 154
 178 178 178 178 176 176 125 125 125 125 125 125 51 51 48 48 48 48 48 89
 89 89 89 89 148 148 148 154 178 178 178 178 178 176 176 125 125 125 125 125
 51 51 51 48 48 48 48 48 89 89 89 89 207 207 148 148 178 178 178 178
 178 178 178 176 176 125 125 125 51 51 51 51 48 48 48 48 48 89 89 89
 89 207 207 207 148 178 178 178 178 178 178 178 176 176 176 125 51 51 51 51
 51 48 48 48 48 48 89 89 89 207 207 207 207 207 178 178 178 178 178 178
 216 216 216 216 38 38 38 38 51 51 116 116 48 48 48 89 89 207 207 207
 207 207 207 178 178 178 178 178 216 216 216 216 216 38 38 38 38 38 51 116
 116 116 48 48 48 207 207 207 207 207 207 207 178 178 178 178 216 216 216 216
 216 216 203 38 38 38 172 172 172 116 116 116 48 98 179 207 24 207 24 207
 207 178 178 178 216 216 216 216 64 64 64 64 38 38 172 172 172 172 172 98
 98 98 98 29 179 16 16 16 82 82 82 84 64 64 64 64 64 64 64 64
 64 64 172 172 172 172 172 172 98 98 98 98 29 29 16 16 16 82 82 82
 84 64 64 64 64 64 64 64 64 184 18 18 18 172 172 172 98 98 98 98
 98 66 66 16 16 16 16 82 82 84 64 64 64 64 64 64 64 184 184 18
 18 18 18 18 172 98 98 105 105 105 66 66 66 16 16 82 82 84 241 241
 241 241 241 64 64 64 184 184 18 18 18 18 161 161 105 105 105 105 66 66
 66 66 66 152 82 82 241 241 241 241 241 241 241 241 184 184 184 18 18 18
 18 161 161 161 105 105 105 66 66 66 66 66 152 152 140 219 219 219 241 241
 241 241 241 241 184 160 160 160 160 161 161 161 161 105 105 105 66 66 66 66
 187 187 187 187 219 219 219 219 241 241 241 241 241 160 160 160 160 160 160 161
 161 161 105 105 105 66 66 66 187 187 187 187 187 219 219 219 219 219 241 241
 241 10 10 7 160 160 160 160 160 160 161 47 47 47 66 66 187 187 187 187
 187 187 219 219 219 219 219 241 241 10 10 10 7 7 160 160 160 160 160 160
 147 147 209 209 187 187 187 187 187 187 187 177 219 219 219 219 149 149 10 10
 10 7 7 7 160 160 160 160 147 147 147 209 209 209 209 187 187 187 187 87
 177 177 199 199 149 149 149 10 10 10 7 7 7 160 160 160 33 33 147 147
 209 209 209 209 187 187 187 187 177 177 177 177 199 149 149 149 10 10 7 7
 7 7 160 160 33 33 33 33 147 209 209 209 209 209 146 146 146 177 177 177
 177 177 149 149 149 10 10 7 131 131 131 131 131 33 33 33 33 33 33 209
 209 96 96 96 146 177 177 177 177 177 177 77 77 131 131 131 131 131 131 131
 131 131 30 30 30 33 147 209 209 209 96 96 96 96 177 177 188 188 188 188
 77 77 77 131 131 131 131 131 131 131 131 30 30 30 30 251 251 251 96 96
 96 96 144 144 188 188 188 188 188 77 77 77 234 225 131 131 131 131 131 131
 30 30 30 251 251 251 251 251 96 96 96 144 144 188 188 188 188 77 77 77
 234 234 234 234 131 131 131 131 30 30 30 30 251 251 251 251 251 227 227 144
 144 144 188 188 188 188 77 77 77 234 234 234 234 234 125 131 131 30 30 30
 30 251 251 251 251 227 227 227 227 144 144 188 188 188 188 77 77 234 234 234
 234 234 234 125 125 125 125 30 222 251 251 251 251 251 227 227 227 227 148 148
 188 188 188 188 77 77 234 234 234 234 234 125 125 125 125 125 125 222 251 251
 251 251 227 227 227 227 227 148 148 148 148 91 91 91 77 234 234 234 234 234
 125 125 125 125 125 51 51 48 48 251 251 89 89 89 89 89 148 148 148 91
 91 91 91 178 176 176 176 176 176 125 125 125 51 51 51 51 48 48 217 217
 89 89 89 89 89 148 148 148 91 91 91 178 178 176 176 176 176 176 125 125
 51 51 51 51 51 48 48 48 217 89 89 89 89 207 207 207 148 91 79 178
 178 178 178 176 176 176 176 71 71 51 51 51 51 51 48 48 48 48 89 89
 89 89 207 207 207 207 79 79 79 178 178 178 178 176 176 176 176 51 51 51
 51 51 51 48 48 48 48 89 89 89 207 207 207 207 207 79 79 79 178 178
 216 216 216 216 216 38 38 38 38 51 51 51 48 48 48 185 185 179 207 207
 207 207 207 207 178 178 178 178 216 216 216 216 216 216 203 38 38 38 38 3
 3 3 48 185 185 185 179 179 207 207 207 207 207 178 178 178 178 216 216 216
 216 216 203 203 38 38 38 38 3 3 3 3 185 185 185 179 179 179 207 207
 207 207 178 178 178 216 216 216 216 216 216 203 203 203 38 38 3 3 3 3
 98 98 98 98 179 179 16 16 16 16 16 82 216 216 216 216 216 216 216 216
 203 203 203 18 172 172 3 3 3 98 98 98 98 179 16 16 16 16 16 16
 101 101 64 64 64 64 64 64 64 64 203 18 18 18 18 3 3 98 98 98
 98 98 16 16 16 16 16 16 16 101 101 241 241 241 241 64 64 64 64 184
 18 18 18 18 18 3 98 98 105 105 105 66 66 16 16 16 16 16 101 101
 241 241 241 241 241 64 64 64 184 18 18 18 18 18 161 105 105 105 105 105
 66 66 66 16 16 16 16 241 241 241 241 241 241 241 241 241 184 18 18 18
 18 18 161 161 105 105 105 105 66 66 66 66 1 1 1 1 219 219 219 241
 241 63 241 241 241 241 160 160 18 18 18 161 161 161 105 105 105 66 66 66
 66 1 1 1 1 219 219 219 219 241 241 241 241 241 241 160 160 160 160 160
 161 161 161 47 47 47 47 66 66 187 187 187 187 187 219 219 219 219 219 241
 241 241 10 10 7 7 160 160 160 160 160 160 47 47 47 47 47 187 187 187
 187 87 87 219 219 219 219 219 219 241 10 10 10 7 7 160 160 160 160 160
 160 47 47 47 47 47 187 187 187 87 87 87 177 219 219 219 219 219 241 10
 10 10 7 7 7 160 160 160 160 147 147 147 209 209 209 209 187 187 87 87
 87 177 177 177 219 219 219 10 10 10 10 7 7 7 160 160 160 147 147 147
 147 209 209 209 209 146 146 146 87 177 177 177 177 177 149 149 10 10 10 7
 7 7 7 7 160 147 147 147 147 147 209 209 209 209 146 146 146 146 177 177
 177 177 177 177 149 10 10 10 7 131 131 131 131 131 30 30 30 147 147 209
 209 209 209 146 146 146 177 177 177 177 177 177 177 177 28 131 131 131 131 131
 131 131 131 30 30 30 30 147 209 209 209 96 146 146 146 177 177 188 188 188
 188 188 188 28 131 131 131 131 131 131 131 131 30 30 30 30 251 251 251 251
 96 96 146 146 188 188 188 188 188 188 188 188 28 234 131 131 131 131 131 131
 131 30 30 30 30 251 251 251 251 96 96 96 144 188 188 188 188 188 188 188
 188 234 234 234 234 131 131 131 131 27 27 27 27 251 251 251 251 251 227 227
 227 144 188 188 188 188 188 188 188 188 234 234 234 234 234 131 131 131 27 27
 27 27 251 251 251 251 227 227 227 227 144 188 188 188 188 188 188 188 234 234
 234 234 234 234 125 125 125 27 27 27 27 251 251 251 251 227 227 227 227 227
 188 188 188 188 188 188 188 234 234 234 234 234 234 125 125 125 125 27 27 206
 206 206 206 227 227 227 227 227 148 148 148 91 91 91 91 91 142 234 234 234
 234 71 71 71 125 51 51 51 17 206 206 206 206 89 89 89 89 148 148 148
 91 91 91 91 91 176 176 176 176 176 71 71 71 51 51 51 51 17 217 217
 217 217 89 89 89 89 148 148 91 91 91 91 91 91 176 176 176 176 176 71
 71 71 51 51 51 51 48 217 217 217 217 89 89 89 207 207 207 91 91 91
 79 79 79 79 176 176 176 176 71 71 51 51 51 51 51 48 48 48 217 89
 89 89 89 207 207 207 91 79 79 79 79 79 178 176 176 176 176 71 71 51
 51 51 51 51 51 48 48 185 185 89 89 207 207 207 207 207 79 79 79 79
 79 216 216 216 216 176 71 51 51 51 51 51 51 51 48 185 185 185 179 179
 207 207 207 207 207 79 79 79 79 216 216 216 216 216 203 203 38 38 38 51
 3 3 3 185 185 185 185 179 179 179 207 207 207 207 79 79 79 79 216 216
 216 216 216 203 203 203 38 38 3 3 3 3 3 185 185 185 179 179 179 179
 207 207 207 79 79 79 216 216 216 216 216 216 203 203 203 121 121 3 3 3
 3 3 98 185 185 179 179 16 16 16 16 16 101 79 216 216 216 216 216 216
 216 203 203 203 121 121 3 3 3 3 98 98 98 98 16 16 16 16 16 16
 16 101 101 120 120 120 216 216 216 216 203 203 18 18 18 18 3 3 98 98
 98 98 98 16 16 16 16 16 16 16 101 101 101 241 241 241 241 64 64 64
 53 18 18 18 18 18 3 98 98 105 105 105 16 16 16 16 16 16 16 101
 101 101 241 241 241 241 241 64 53 53 18 18 18 18 18 161 105 105 105 105
 105 66 66 16 16 16 16 16 101 101 241 241 241 241 241 241 241 53 53 69
 69 18 18 18 161 105 105 105 105 105 66 66 1 1 1 1 1 101 219 219
 241 241 241 241 241 241 241 69 69 69 69 69 69 161 105 105 105 47 47 47
 66 1 1 1 1 1 219 219 219 219 241 241 241 241 241 10 69 69 69 69
 69 69 161 47 47 47 47 47 47 47 1 1 1 1 87 87 219 219 219 219
 241 241 241 10 10 7 7 160 74 160 160 160 47 47 47 47 47 47 47 1
 1 87 87 87 87 219 219 219 219 219 241 10 10 10 7 7 7 74 74 160
 160 47 47 47 47 47 47 47 187 87 87 87 87 87 87 219 219 219 219 241
 10 10 10 7 7 7 74 74 74 147 147 147 147 47 209 209 209 146 146 87
 87 87 177 177 177 219 219 219 10 10 10 7 7 7 7 74 74 74 147 147
 147 147 147 209 209 209 146 146 146 87 177 177 177 177 177 219 219 10 10 7
 7 7 7 7 7 74 147 147 147 147 147 209 209 209 209 146 146 146 146 177
 177 177 177 177 177 177 10 10 7 7 131 131 131 131 131 30 30 30 147 147
 209 209 209 209 146 146 146 177 177 177 177 177 177 177 177 28 28 131 131 131
 131 131 131 131 30 30 30 30 147 209 209 209 146 146 146 146 146 177 188 188
 188 188 188 188 28 28 28 131 131 131 131 131 131 30 30 30 30 251 251 251
 251 146 146 146 146 188 188 188 188 188 188 188 188 28 28 28 28 131 131 131
 131 27 27 27 27 30 251 251 251 251 251 96 146 188 188 188 188 188 188 188
 188 188 28 28 28 28 28 131 131 27 27 27 27 27 251 251 251 251 251 227
 227 227 188 188 188 188 188 188 188 188 142 28 28 28 28 234 234 83 27 27
 27 27 27 251 251 251 251 227 227 227 227 188 188 188 188 188 188 188 188 142
 142 234 234 234 234 234 83 83 27 27 27 27 206 206 206 206 227 227 227 227
 227 188 188 188 188 188 188 142 142 142 142 234 234 234 71 71 71 51 17 17
 206 206 206 206 206 206 227 227 227 148 188 188 91 91 91 91 142 142 142 142
 234 71 71 71 71 71 51 17 17 17 206 206 206 206 206 89 89 89 89 91
 91 91 91 91 91 142 142 176 176 176 71 71 71 71 51 51 51 17 17 217
 217 217 217 206 89 89 89 89 91 91 91 91 91 91 91 142 176 176 176 176
 71 71 71 51 51 51 51 17 17 217 217 217 89 89 89 207 207 207 91 91
 91 79 79 79 79 176 176 176 176 71 71 71 51 51 51 51 17 17 217 217
 217 89 89 89 207 207 207 91 79 79 79 79 79 79 176 176 176 71 71 71
 51 51 51 51 51 51 17 185 185 185 179 179 207 207 207 207 91 79 79 79
 79 79 216 216 216 216 71 71 71 51 51 51 51 51 51 185 185 185 185 179