# vtk DataFile Version 2.0
Data set from ImportExport Version 6.5.171.b0b162591
ASCII

DATASET RECTILINEAR_GRID
DIMENSIONS 30 30 30
X_COORDINATES 30 float
-1.250000 1.250000 3.750000 6.250000 8.750000 11.250000 13.750000 16.250000 18.750000 21.250000 23.750000 26.250000 28.750000 31.250000 33.750000 36.250000 38.750000 41.250000 43.750000 46.250000 48.750000 
51.250000 53.750000 56.250000 58.750000 61.250000 63.750000 66.250000 68.750000 71.250000 
Y_COORDINATES 30 float
-1.250000 1.250000 3.750000 6.250000 8.750000 11.250000 13.750000 16.250000 18.750000 21.250000 23.750000 26.250000 28.750000 31.250000 33.750000 36.250000 38.750000 41.250000 43.750000 46.250000 48.750000 
51.250000 53.750000 56.250000 58.750000 61.250000 63.750000 66.250000 68.750000 71.250000 
Z_COORDINATES 30 float
-1.250000 1.250000 3.750000 6.250000 8.750000 11.250000 13.750000 16.250000 18.750000 21.250000 23.750000 26.250000 28.750000 31.250000 33.750000 36.250000 38.750000 41.250000 43.750000 46.250000 48.750000 
51.250000 53.750000 56.250000 58.750000 61.250000 63.750000 66.250000 68.750000 71.250000 
CELL_DATA 24389
SCALARS FeatureIds int 1
LOOKUP_TABLE default
 96 96 96 21 21 21 21 21 81 81 81 81 81 81 81 81 210 210 210 210
 210 183 183 183 98 98 116 116 116 96 96 96 21 21 21 21 21 21 81 81
 81 81 81 81 155 210 210 210 210 210 210 183 183 183 96 96 96 96 96 96
 96 96 21 21 21 21 21 81 81 81 81 81 155 155 210 210 210 210 210 210
 183 183 183 96 96 96 96 96 96 96 96 218 21 21 21 21 81 81 81 81
 155 155 155 210 210 210 210 210 210 183 183 183 96 96 96 96 96 96 96 96
 29 29 29 21 21 81 81 81 81 155 155 155 210 210 210 203 203 203 85 85
 96 96 96 96 96 96 96 96 61 29 29 29 29 29 29 81 81 155 155 155
 155 155 203 203 203 203 85 85 85 85 96 96 96 96 36 36 36 29 29 29
 29 29 29 29 29 29 155 155 155 155 203 203 203 203 203 85 85 85 36 36
 36 36 36 36 36 36 29 29 29 29 29 29 29 29 29 237 237 145 145 145
 53 53 53 53 53 85 85 36 36 36 36 36 36 36 36 29 29 29 29 29
 29 29 29 29 237 237 237 145 145 53 53 53 53 53 53 53 36 36 36 36
 36 36 89 89 29 29 29 29 29 29 29 29 29 237 237 237 237 145 145 53
 53 53 53 7 7 7 36 36 36 36 89 89 89 89 15 29 29 29 29 29
 29 29 237 237 237 237 237 237 53 53 53 7 7 7 7 7 36 36 36 89
 89 89 89 15 15 29 29 29 29 29 136 136 199 199 199 199 199 53 171 171
 7 7 7 7 7 181 181 36 89 89 89 89 15 15 15 29 29 29 136 136
 136 199 199 199 199 3 3 142 171 171 7 7 7 7 181 55 55 89 93 89
 89 15 15 15 29 29 136 136 136 199 199 199 199 199 3 3 3 142 171 7
 7 187 187 187 55 55 93 93 93 93 160 15 160 115 115 115 115 115 56 56
 199 56 56 3 3 3 142 62 187 187 187 187 187 55 55 93 93 93 160 160
 160 160 115 115 115 115 115 115 56 56 56 56 56 3 3 62 187 187 187 187
 187 187 55 55 93 93 93 160 160 160 160 115 115 115 115 115 115 56 56 56
 56 56 56 4 4 187 187 187 187 187 187 187 187 93 93 160 160 160 160 160
 115 115 115 115 115 184 184 56 56 56 78 78 4 187 187 187 187 187 187 187
 187 187 187 93 160 160 160 160 160 115 115 115 115 184 184 184 95 95 78 78
 78 78 4 187 187 187 187 187 187 187 187 187 93 160 160 160 160 160 115 115
 184 184 184 184 184 95 95 78 78 78 78 78 187 187 187 187 187 187 187 187
 187 193 160 160 160 160 160 184 184 184 184 184 184 184 95 95 78 78 78 78
 78 187 187 170 170 170 170 92 92 193 193 193 160 160 224 160 17 17 17 17
 17 172 172 95 95 216 216 216 216 216 216 59 59 59 59 59 92 92 193 193
 193 193 224 224 224 172 172 172 172 172 172 172 95 216 216 216 216 216 216 59
 59 59 59 59 59 92 92 193 193 193 193 153 224 224 227 227 227 227 227 227
 227 174 174 174 216 216 216 216 59 59 59 59 59 59 179 92 193 193 193 193
 193 224 224 227 227 227 227 227 227 227 174 174 174 174 174 174 174 179 179 179
 179 179 179 179 193 193 193 193 193 193 224 224 227 227 227 227 227 227 227 174
 174 174 174 174 174 98 98 98 98 179 179 179 179 193 193 193 193 193 193 193
 227 227 227 227 227 227 227 227 174 174 174 174 174 174 98 98 98 98 98 179
 179 116 116 193 193 193 193 193 193 227 227 227 227 227 227 227 227 174 174 174
 174 174 98 98 98 98 98 98 179 116 116 116 116 193 193 193 193 193 81 81
 81 81 81 81 81 227 174 174 174 174 174 98 98 98 98 98 98 98 116 116
 116 96 96 96 21 21 21 21 21 81 81 81 81 81 81 81 155 210 210 210
 210 210 210 98 98 98 98 116 116 116 96 96 96 218 218 21 21 21 81 81
 81 81 81 81 155 155 210 210 210 210 210 210 72 72 72 96 96 96 96 96
 96 96 218 218 218 21 21 81 81 81 81 81 155 155 155 210 210 210 210 210
 210 72 72 72 96 96 96 96 96 96 96 218 218 218 218 21 81 81 81 81
 81 155 155 155 155 210 210 26 210 210 72 72 72 96 96 96 96 96 96 96
 61 218 218 29 29 81 81 81 81 155 155 155 155 155 210 203 203 203 203 72
 72 72 96 96 96 96 96 96 96 61 29 29 29 29 29 29 81 81 155 155
 155 155 155 203 203 203 203 203 203 72 72 96 96 96 96 36 36 67 67 29
 29 29 29 29 29 29 29 155 155 155 155 203 203 203 203 203 203 203 72 36
 36 36 36 36 36 36 67 67 29 29 29 29 29 29 29 29 237 237 237 237
 237 53 53 53 53 53 53 181 181 36 36 36 36 36 36 67 29 29 29 29
 29 29 29 29 29 237 237 237 237 237 53 53 53 53 53 53 181 181 181 36
 36 36 36 36 89 29 29 29 29 29 29 29 29 29 237 237 237 237 237 237
 53 53 53 53 53 181 181 181 181 36 36 89 89 89 29 29 29 29 29 29
 29 29 29 237 237 237 237 237 237 237 53 53 53 7 181 181 181 181 181 36
 89 89 89 89 29 29 29 29 29 29 136 136 136 199 199 199 237 237 237 171
 171 171 7 7 181 181 181 181 181 89 93 89 89 15 29 29 29 29 136 136
 136 136 199 199 199 199 3 3 142 171 171 171 7 176 181 181 55 55 93 93
 93 93 15 15 29 29 29 136 136 136 136 199 199 199 199 3 3 142 142 171
 62 187 187 187 55 55 55 93 93 93 93 93 160 160 160 115 136 136 136 136
 56 199 199 3 3 3 142 142 62 62 187 187 187 55 55 55 93 93 93 93
 160 160 160 160 115 115 115 136 136 56 56 56 56 3 3 142 62 62 62 187
 187 187 55 55 55 93 93 93 160 160 160 160 160 115 115 115 115 136 56 56
 56 56 56 3 4 4 4 187 187 187 187 187 55 55 93 93 93 160 160 160
 160 160 115 115 115 184 184 184 74 74 74 78 78 4 4 4 187 187 187 187
 187 187 187 187 93 93 160 160 160 160 160 115 115 184 184 184 184 74 74 78
 78 78 78 4 4 187 187 187 187 187 187 187 187 93 93 160 160 160 160 160
 184 184 184 184 184 184 184 78 78 78 78 78 4 4 187 187 187 187 187 187
 187 187 93 93 160 160 160 160 184 184 184 184 184 184 184 184 216 78 78 78
 216 216 33 33 33 187 187 187 187 187 193 193 231 231 231 224 231 184 184 172
 172 17 172 172 216 216 216 216 216 216 216 33 33 33 33 59 59 92 92 193
 193 153 153 224 224 224 224 17 17 172 172 172 172 216 216 216 216 216 216 216
 33 33 33 59 59 59 92 92 193 193 153 153 153 224 224 224 227 227 227 227
 227 227 227 216 216 216 216 216 216 33 33 59 59 179 179 179 179 193 193 153
 153 153 224 224 224 227 227 227 227 227 227 227 174 174 174 216 216 216 179 179
 179 179 179 179 179 193 193 193 153 153 153 153 224 227 227 227 227 227 227 227
 227 174 174 174 174 174 98 98 98 98 179 179 179 179 116 116 193 153 153 153
 153 153 227 227 227 227 227 227 227 227 174 174 174 174 98 98 98 98 98 179
 179 179 116 116 116 193 153 153 153 153 153 227 227 227 227 227 227 227 227 174
 174 233 233 98 98 98 98 98 98 179 116 116 116 116 116 153 153 153 153 81
 81 81 81 81 81 81 227 227 174 174 233 233 98 98 98 98 98 98 98 116
 116 116 96 96 27 218 218 218 218 81 81 81 81 81 81 81 155 155 6 210
 210 210 210 98 98 98 98 98 116 116 116 96 96 27 218 218 218 218 81 81
 81 81 81 81 155 155 155 155 210 210 210 210 210 72 72 72 96 96 96 96
 96 96 96 218 218 218 218 218 81 81 81 81 81 155 155 155 155 210 210 210
 210 210 72 72 72 96 96 96 96 96 96 61 218 218 218 218 120 120 81 81
 81 155 155 155 155 155 210 210 210 210 210 72 72 72 96 96 96 96 96 96
 61 61 218 218 218 120 120 81 81 81 155 155 155 155 155 210 210 210 210 210
 72 72 72 96 96 96 96 96 61 61 61 61 29 29 29 29 29 81 81 155
 155 155 155 155 203 203 203 203 203 72 72 72 96 96 96 96 36 36 67 67
 67 29 29 29 29 29 29 29 155 155 155 155 155 203 203 203 203 203 72 72
 181 36 36 36 36 36 36 67 67 67 29 29 29 29 29 29 29 237 237 237
 237 237 53 53 53 53 53 53 181 181 181 36 36 36 36 36 67 67 67 29
 29 29 29 29 29 29 237 237 237 237 237 237 53 53 53 53 53 181 181 181
 181 36 36 36 36 67 67 67 29 29 29 29 29 29 29 237 237 237 237 237
 237 237 53 53 53 181 181 181 181 181 181 36 89 89 67 67 29 29 29 29
 29 29 29 29 237 237 237 237 237 237 237 53 53 171 181 181 181 181 181 181
 36 93 93 93 67 29 29 29 29 29 29 136 136 136 237 237 237 237 237 237
 171 171 171 171 181 181 181 181 181 181 93 93 93 93 29 29 29 29 29 136
 136 136 136 136 199 199 3 3 142 142 171 171 171 176 176 176 176 176 176 93
 93 93 93 93 29 29 29 136 136 136 136 136 136 199 199 3 3 142 142 142
 171 62 176 176 176 176 176 93 93 93 93 93 93 160 160 29 136 136 136 136
 136 136 56 3 3 3 3 142 142 62 62 187 187 187 187 55 93 93 93 93
 93 160 160 160 24 24 24 136 136 136 56 56 56 3 3 3 142 62 62 62
 187 187 187 187 55 93 93 93 93 93 160 160 160 24 24 24 24 24 136 74
 74 74 74 3 3 4 4 4 4 187 187 187 187 187 93 93 93 93 160 160
 160 160 160 24 24 24 184 184 74 74 74 74 74 78 4 4 4 4 187 187
 187 187 187 187 93 93 93 160 160 160 160 160 24 24 184 184 184 184 74 74
 74 78 78 4 4 4 4 187 187 187 187 187 187 108 93 93 160 160 160 160
 160 184 184 184 184 184 184 74 74 78 78 78 216 4 4 4 187 187 187 187
 187 187 108 108 231 231 231 231 231 231 184 184 184 184 184 184 216 216 216 216
 216 216 216 33 33 33 33 187 187 187 187 108 108 231 231 231 231 231 231 172
 172 172 17 17 17 216 216 216 216 216 216 216 33 33 33 33 33 187 187 151
 151 153 153 224 224 224 224 224 224 17 17 17 17 17 216 216 216 216 216 216
 216 33 33 33 33 33 59 151 151 153 153 153 153 224 224 224 224 227 227 227
 227 227 227 216 216 216 216 216 216 216 33 33 33 33 179 179 179 179 153 153
 153 153 153 224 224 224 227 227 227 227 227 227 227 216 216 216 216 216 216 33
 33 179 179 179 179 179 179 193 153 153 153 153 153 224 227 227 227 227 227 227
 227 227 174 174 216 216 216 98 98 98 179 179 179 179 179 116 116 153 153 153
 153 153 153 227 227 227 227 227 227 227 227 174 174 233 233 233 98 98 98 98
 179 179 179 116 116 116 153 153 153 153 153 153 227 227 227 227 227 227 227 227
 233 233 233 233 233 98 98 98 98 98 179 116 116 116 116 153 153 153 153 153
 153 81 81 81 81 81 81 227 227 6 233 233 233 233 98 98 98 98 98 98
 116 116 116 96 27 27 218 218 218 218 218 81 81 81 81 81 6 6 6 6
 233 233 210 210 240 240 240 240 240 116 116 116 96 27 27 218 218 218 218 218
 81 81 81 81 81 155 6 6 6 6 210 210 210 240 240 240 240 240 96 96
 96 96 61 27 218 218 218 218 218 120 81 81 81 81 155 155 155 155 210 210
 210 210 72 72 72 72 72 96 96 96 96 61 61 218 218 218 218 120 120 120
 81 81 155 155 155 155 155 155 210 210 210 72 72 72 72 72 96 96 96 61
 61 61 61 218 218 218 120 120 120 81 155 155 155 155 155 155 155 210 210 210
 72 72 72 72 72 96 96 96 61 61 61 61 61 220 218 120 120 120 120 155
 155 155 155 155 155 155 203 203 203 203 72 72 72 72 96 96 61 61 61 61
 67 67 220 220 29 29 182 182 182 155 155 155 155 155 203 203 53 53 203 72
 181 181 181 36 36 36 61 61 67 67 67 220 29 29 29 182 182 182 237 237
 237 237 237 237 53 53 53 53 181 181 181 181 181 36 36 36 67 67 67 67
 67 29 29 29 182 182 182 237 237 237 237 237 237 53 53 53 53 181 181 181
 181 181 181 36 36 67 67 67 67 29 29 29 29 182 182 182 237 237 237 237
 237 237 237 166 166 166 181 181 181 181 181 181 36 93 67 67 67 67 29 29
 29 29 182 182 182 237 237 237 237 237 237 166 166 166 166 166 181 181 181 181
 181 181 93 93 93 67 67 29 29 29 29 136 136 136 136 237 237 237 237 237
 166 166 171 171 171 181 181 181 181 181 181 93 93 93 93 93 29 29 29 29
 136 136 136 136 136 225 225 3 3 142 142 171 171 171 176 176 176 176 176 176
 93 93 93 93 93 93 29 136 136 136 136 136 136 136 225 3 3 3 142 142
 142 171 62 176 176 176 176 176 93 93 93 93 93 93 93 134 134 136 136 136
 136 136 136 56 3 3 3 3 142 142 62 62 176 176 176 176 176 93 93 93
 93 93 93 160 134 134 24 24 73 73 73 73 56 3 3 3 3 62 62 62
 62 62 187 187 187 187 93 93 93 93 93 160 160 134 134 24 24 24 73 73
 74 74 74 74 74 3 4 4 4 4 187 187 187 187 187 93 93 93 93 93
 160 160 134 134 24 24 24 24 163 74 74 74 74 74 3 4 4 4 4 4
 187 187 187 187 93 108 93 93 93 160 160 134 134 24 24 24 163 163 74 74
 74 74 74 216 4 4 4 4 4 187 187 187 108 108 108 93 93 231 231 231
 231 134 24 24 163 163 163 163 106 106 216 216 216 216 4 4 4 33 187 187
 108 108 108 108 108 231 231 231 231 231 231 24 184 163 163 163 184 106 216 216
 216 216 216 216 33 33 33 33 33 108 108 108 108 108 231 231 231 231 231 231
 231 172 172 17 17 17 216 216 216 216 216 216 216 33 33 33 33 33 151 151
 151 151 151 231 231 224 224 224 224 224 17 17 17 17 17 216 216 216 216 216
 216 216 33 33 33 33 33 151 151 151 153 153 153 153 224 224 224 224 224 227
 227 227 227 227 216 216 216 216 216 216 216 33 33 33 33 33 179 151 151 153
 153 153 153 153 224 224 224 227 227 227 227 227 227 227 216 216 216 216 216 216
 33 33 179 179 179 179 179 234 153 153 153 153 153 153 224 224 227 227 227 227
 227 227 227 233 233 233 233 233 233 98 98 179 179 179 179 234 234 116 153 153
 153 153 153 224 224 227 227 227 227 227 227 227 233 233 233 233 233 233 98 98
 98 179 179 179 116 116 116 153 153 153 153 153 224 227 227 227 227 227 227 227
 233 233 233 233 233 233 233 98 98 98 98 179 116 116 116 116 153 153 153 153
 153 224 81 81 81 81 81 81 227 6 6 233 233 233 233 233 98 98 98 98
 98 116 116 116 146 27 27 27 218 218 218 218 218 81 81 81 6 6 6 6
 6 233 233 233 104 240 240 240 240 240 240 146 146 27 27 27 27 218 218 218
 218 120 120 81 81 6 6 6 6 6 6 210 104 104 240 240 240 240 240 240
 96 146 61 27 27 27 218 218 218 120 120 120 81 81 155 155 6 6 6 6
 210 43 43 43 240 240 240 240 96 96 96 61 61 61 27 218 218 218 120 120
 120 120 81 155 155 155 155 155 155 210 43 43 43 72 72 72 72 96 96 96
 61 61 61 61 218 218 120 120 120 120 120 155 155 155 155 155 155 155 210 43
 43 43 72 72 72 72 96 96 61 61 61 61 61 220 220 120 120 120 120 120
 120 155 155 155 155 155 155 203 203 43 43 72 72 72 72 96 96 61 61 61
 61 67 220 220 220 220 182 182 182 182 155 155 155 155 155 203 203 53 53 43
 72 72 181 181 181 36 61 61 61 67 67 67 220 220 220 182 182 182 182 237
 237 237 237 237 237 53 53 53 31 181 181 181 181 181 181 61 61 61 67 67
 67 220 220 182 182 182 182 182 237 237 237 237 237 237 166 166 166 166 181 181
 181 181 181 181 36 61 67 67 67 67 67 29 182 182 182 182 182 237 237 237
 237 237 237 166 166 166 166 166 181 181 181 181 181 181 38 67 67 67 67 67
 29 182 182 182 182 182 20 237 237 237 237 237 166 166 166 166 166 181 181 181
 181 181 181 38 38 38 67 67 29 29 182 182 182 136 136 136 237 237 237 237
 166 166 166 166 166 166 176 176 176 176 176 176 38 38 38 38 169 169 169 182
 182 136 136 136 136 136 225 225 225 149 166 166 166 171 176 176 176 176 176 176
 176 38 38 38 38 38 169 169 134 136 136 136 136 136 136 225 225 225 149 142
 142 142 171 176 176 176 176 176 176 38 38 38 38 38 38 38 134 134 134 73
 73 73 73 73 225 225 225 149 149 142 142 62 62 176 176 176 176 176 38 38
 38 38 38 38 134 134 134 134 73 73 73 73 73 74 74 3 3 3 62 62
 62 62 176 176 176 176 38 38 38 38 38 38 38 134 134 134 134 24 73 73
 73 73 74 74 74 74 3 4 4 4 4 4 187 187 187 38 38 38 38 38
 38 38 134 134 134 134 24 24 73 73 74 74 74 74 74 74 4 4 4 4
 4 187 187 108 108 108 108 38 38 38 160 134 134 134 134 24 24 163 163 106
 106 106 106 106 216 4 4 4 4 4 187 108 108 108 108 108 108 38 204 204
 231 134 134 134 24 163 163 163 106 106 106 106 216 216 216 4 4 4 33 33
 108 108 108 108 108 108 231 231 231 231 231 231 134 184 163 163 163 106 106 106
 216 216 216 216 216 33 33 33 33 108 108 108 108 151 151 231 231 231 231 231
 231 231 231 163 163 163 106 106 216 216 216 216 216 216 33 33 33 33 33 151
 151 151 151 151 231 231 231 231 231 231 231 17 17 17 17 216 216 216 216 216
 216 216 216 33 33 33 33 33 151 151 151 151 153 153 153 224 224 224 224 224
 227 227 227 227 227 216 216 216 216 216 216 216 33 33 33 33 33 151 151 151
 153 153 153 153 153 224 224 224 224 227 227 227 227 227 227 216 216 216 216 216
 216 33 33 33 223 223 223 234 234 153 153 153 153 153 153 224 224 227 227 227
 227 227 227 233 233 233 233 233 233 233 233 98 223 223 223 223 234 234 153 153
 153 153 153 153 153 153 227 227 227 227 227 227 233 233 233 233 233 233 233 233
 98 98 223 223 223 234 234 153 153 153 153 153 153 153 153 227 227 227 227 227
 201 233 233 233 233 233 233 233 233 98 98 98 223 116 234 234 153 153 153 153
 153 153 65 65 81 81 81 201 201 6 6 6 233 233 233 233 233 240 240 240
 240 240 116 116 116 146 27 27 27 218 218 218 218 218 120 120 81 6 6 6
 6 6 233 233 104 104 240 240 240 240 240 167 146 146 146 27 27 27 218 218
 218 218 120 120 120 81 6 6 6 6 6 6 104 104 104 240 240 240 240 167
 167 146 146 27 27 27 27 218 218 218 120 120 120 120 120 6 6 6 6 6
 6 104 104 43 43 240 240 240 167 167 146 146 61 61 27 27 218 218 218 120
 120 120 120 120 155 155 6 6 6 6 104 43 43 43 43 240 240 167 167 61
 61 61 61 61 27 27 218 120 120 120 120 120 120 155 155 155 155 155 155 43
 43 43 43 43 72 72 72 167 61 61 61 61 61 61 220 220 120 120 120 120
 120 120 30 155 155 155 155 155 31 31 31 31 31 72 72 72 61 61 61 61
 61 61 61 220 220 220 220 182 182 182 182 30 30 30 155 155 155 31 31 31
 31 31 31 181 181 181 61 61 61 61 61 67 220 220 220 220 182 182 182 182
 20 20 237 237 237 237 166 166 31 31 31 181 181 181 181 61 61 61 61 67
 67 220 220 220 182 182 182 182 182 20 20 237 237 237 221 166 166 166 166 181
 181 181 181 181 181 61 61 67 67 67 67 220 220 182 182 182 182 182 20 20
 237 237 237 221 166 166 166 166 166 181 181 181 181 181 181 38 38 67 67 67
 220 182 182 182 182 182 182 20 20 237 237 237 166 166 166 166 166 166 181 181
 181 181 181 176 38 38 38 67 169 169 182 182 182 182 182 20 20 20 225 225
 225 166 166 166 166 166 166 176 176 176 176 176 176 38 38 38 38 169 169 169
 182 182 136 136 136 136 225 225 225 225 149 166 166 166 166 176 176 176 176 176
 176 176 38 38 38 38 169 169 169 206 206 136 136 73 73 225 225 225 225 149
 149 166 166 166 176 176 176 176 176 176 38 38 38 38 38 169 169 206 206 206
 73 73 73 73 73 225 225 225 149 149 142 142 62 176 176 176 176 176 176 38
 38 38 38 38 38 206 206 206 206 73 73 73 73 73 225 225 225 149 149 62
 62 62 62 176 176 176 176 38 38 38 38 38 38 38 134 134 134 134 73 73
 73 73 73 74 74 74 74 149 4 4 4 4 4 176 176 108 38 38 38 38
 38 38 38 134 134 134 134 134 73 73 73 73 74 74 74 74 74 4 4 4
 4 4 108 108 108 108 108 108 38 38 38 134 134 134 134 134 134 163 163 163
 106 106 106 106 106 216 4 4 4 4 4 108 108 108 108 108 108 108 38 231
 231 231 134 134 134 134 163 163 163 106 106 106 106 106 216 216 4 4 4 33
 108 108 108 68 108 108 108 231 231 231 231 231 231 134 134 163 163 163 106 106
 106 106 216 216 216 216 33 33 33 33 108 108 108 108 151 108 231 231 231 204
 231 231 231 231 163 163 163 106 106 106 216 216 216 216 216 33 33 33 33 151
 151 151 151 151 151 231 231 231 231 231 231 231 231 17 17 17 106 216 216 216
 216 216 216 216 33 33 33 33 151 151 151 151 151 153 153 231 231 231 231 231
 231 231 227 227 227 106 216 216 216 216 216 216 216 33 33 33 33 223 151 151
 151 153 153 153 153 153 224 224 231 231 227 227 227 227 201 201 233 233 233 233
 233 233 33 33 223 223 223 223 234 234 215 153 153 153 153 153 117 117 227 227
 227 227 201 201 201 233 233 233 233 233 233 233 223 223 223 223 223 234 234 153
 153 153 153 153 153 153 153 213 227 227 201 201 201 201 233 233 233 233 233 233
 233 223 223 223 223 223 234 234 153 153 153 153 153 153 65 65 213 227 201 201
 201 201 201 233 233 233 233 233 233 233 240 240 223 223 223 234 234 146 153 153
 153 153 65 65 65 65 107 201 201 201 201 6 6 233 233 233 233 104 104 240
 240 240 223 146 234 234 146 27 27 27 27 218 218 65 65 65 65 201 201 6
 6 6 6 233 104 104 104 104 240 240 240 167 167 146 146 146 27 27 27 27
 218 218 218 65 65 65 201 201 6 6 6 6 104 104 104 104 104 240 240 240
 167 167 146 146 146 27 27 27 27 218 218 218 120 120 120 120 6 6 6 6
 6 6 104 104 104 43 240 240 167 167 167 146 146 61 27 27 27 27 218 218
 120 120 120 120 120 6 6 6 6 6 6 104 104 43 43 43 240 167 167 167
 146 146 61 61 27 27 27 218 120 120 120 120 120 30 30 30 30 30 155 155
 31 31 31 31 31 31 72 167 167 61 61 61 61 61 27 27 220 120 120 120
 120 120 30 30 30 30 30 30 30 31 31 31 31 31 31 31 167 167 61 61
 61 61 61 61 220 220 220 220 120 182 182 30 30 30 30 30 30 221 31 31
 31 31 31 31 31 181 61 61 61 61 61 61 220 220 220 220 220 182 182 182
 20 20 30 30 30 221 221 221 31 31 31 31 31 181 181 181 61 61 61 61
 67 67 220 220 220 182 182 182 182 20 20 20 20 237 221 221 221 166 166 31
 31 181 181 181 181 181 61 61 61 67 67 220 220 220 182 182 182 182 20 20
 20 20 237 221 221 221 166 166 166 166 181 181 181 181 181 42 38 38 38 67
 169 220 182 182 182 182 182 20 20 20 20 237 221 221 166 166 166 166 166 176
 181 181 181 176 42 38 38 38 169 169 169 169 182 182 182 182 20 20 20 20
 225 221 166 166 166 166 166 166 176 176 176 176 176 176 38 38 38 169 169 169
 169 169 182 182 182 83 20 225 225 225 225 149 166 166 166 166 176 176 176 176
 176 176 176 38 38 38 38 169 169 169 206 206 73 73 73 73 225 225 225 225
 149 149 166 166 166 176 176 176 176 176 176 38 38 38 38 38 169 169 206 206
 206 73 73 73 73 73 225 225 225 149 149 166 166 62 176 176 176 176 176 176
 38 38 38 38 38 169 206 206 206 206 73 73 73 73 73 225 225 225 149 149
 166 62 62 176 176 176 176 176 38 38 38 38 38 38 38 206 206 134 134 73
 73 73 73 73 74 74 74 149 149 4 4 4 4 176 176 176 176 38 38 38
 38 38 38 38 134 134 134 134 134 73 73 73 73 106 106 106 106 106 4 4
 4 4 4 176 235 235 235 235 235 38 38 38 134 134 134 134 134 134 73 163
 73 106 106 106 106 106 106 4 4 4 4 222 235 235 235 235 235 235 235 38
 231 231 231 134 134 134 134 163 163 163 106 106 106 106 106 216 216 4 4 4
 235 235 235 235 235 235 235 235 231 231 231 231 231 231 134 134 163 163 163 106
 106 106 106 106 216 216 216 33 33 33 235 235 235 235 235 235 235 231 231 231
 231 231 231 231 231 163 163 163 106 106 106 216 216 216 216 216 33 33 33 230
 151 151 151 151 151 151 231 231 231 231 231 231 231 231 137 137 17 106 106 216
 216 216 216 216 216 33 33 230 230 230 151 151 151 151 117 117 117 117 231 204
 117 117 117 137 137 201 201 216 216 216 216 216 216 216 230 230 230 230 230 230
 151 151 215 215 153 117 117 117 117 117 117 137 137 137 201 201 201 233 233 233
 233 233 233 230 230 230 223 223 234 215 215 215 215 153 153 117 117 117 117 117
 137 137 201 201 201 201 233 233 233 233 233 233 200 200 223 223 223 215 215 215
 215 215 153 153 153 117 117 117 213 107 201 201 201 201 201 233 233 233 233 233
 233 200 200 200 223 223 215 215 215 146 146 153 153 153 65 65 65 213 107 201
 201 201 201 201 233 233 233 233 233 233 104 200 200 200 223 146 234 146 146 146
 153 153 65 65 65 65 65 107 201 201 201 201 201 6 233 233 233 104 104 104
 240 240 167 167 146 146 146 146 146 27 27 27 65 65 65 65 65 65 201 201
 201 201 6 6 104 104 104 104 104 240 240 167 167 167 146 146 146 27 27 27
 27 65 65 65 65 65 65 65 201 6 6 6 6 104 104 104 104 104 240 240
 167 167 167 146 146 146 27 27 27 27 218 218 65 65 65 65 65 6 6 6
 6 6 104 104 104 104 104 240 240 167 167 167 146 146 61 27 27 27 27 218
 218 65 65 65 65 30 30 30 6 6 6 104 104 104 104 31 31 167 167 167
 167 146 146 61 27 27 27 27 27 218 120 120 120 120 30 30 30 30 30 30
 104 104 31 31 31 31 31 167 167 167 146 61 61 61 27 27 27 27 120 120
 120 120 30 30 30 30 30 30 30 30 31 31 31 31 31 31 31 202 202 61
 61 61 61 61 27 27 220 220 220 120 182 30 30 30 30 30 30 30 30 31
 31 31 31 31 31 31 202 202 61 61 61 61 61 220 220 220 220 220 182 182
 182 20 30 30 30 30 221 221 221 31 31 31 31 31 202 202 202 202 61 61
 61 61 67 220 220 220 182 182 182 182 20 20 20 20 30 221 221 221 221 31
 8 8 8 8 202 202 202 42 42 61 61 67 220 220 220 182 182 182 182 20
 20 20 20 221 221 221 221 221 166 166 8 8 8 42 42 42 42 42 42 38
 169 169 169 182 182 182 182 182 20 20 20 20 221 221 221 221 166 166 166 8
 8 176 42 42 42 42 42 38 38 169 169 169 169 182 182 182 182 20 20 20
 20 225 156 156 166 166 166 166 166 176 176 176 176 42 42 38 38 38 169 169
 169 169 169 182 83 83 83 83 83 225 225 225 156 166 166 166 166 176 176 176
 176 176 176 176 38 38 38 169 169 169 169 206 206 83 83 83 83 83 225 225
 225 149 149 166 166 166 176 176 176 176 176 176 38 38 38 38 38 169 169 206
 206 206 206 83 83 83 83 225 225 225 149 149 166 166 166 176 176 176 176 176
 176 38 38 38 38 38 169 206 206 177 206 206 73 73 73 73 225 225 225 149
 180 180 180 222 222 222 176 176 176 176 38 38 38 38 38 38 206 206 206 206
 206 73 73 73 73 73 180 180 180 180 180 222 222 222 222 222 176 235 235 38
 38 38 38 38 38 134 134 134 134 134 73 73 73 73 106 106 106 180 180 180
 222 222 222 222 222 235 235 235 235 235 235 38 38 134 134 134 134 134 134 73
 73 73 106 106 106 106 106 106 180 222 222 222 222 222 235 235 235 235 235 235
 235 231 231 231 134 134 134 134 163 163 163 106 106 106 106 106 106 216 222 222
 222 222 235 235 235 235 235 235 235 235 231 231 231 231 231 134 134 163 163 163
 106 106 106 106 106 216 216 216 147 222 222 235 235 235 235 235 235 235 231 231
 231 231 231 231 231 231 163 28 28 28 106 106 106 216 216 216 216 230 230 230
 230 230 235 235 235 235 117 117 117 117 117 117 117 117 117 137 137 137 28 106
 106 22 216 216 216 54 230 230 230 230 230 230 151 235 215 117 117 117 117 117
 117 117 117 117 137 137 137 137 22 22 22 52 52 52 54 230 230 230 230 230
 230 230 215 215 215 117 117 117 117 117 117 117 137 137 137 137 137 22 22 22
 52 52 52 52 230 230 230 230 230 215 215 215 215 215 117 117 117 117 117 117
 213 137 137 137 201 201 201 22 52 52 52 233 233 200 200 200 230 230 215 215
 215 215 215 117 117 117 117 117 213 213 107 137 201 201 201 201 201 233 233 233
 233 233 200 200 200 200 215 215 215 215 146 146 146 153 65 65 65 65 213 107
 107 201 201 201 201 201 233 233 233 233 233 200 200 200 200 200 146 146 146 146
 146 146 146 65 65 65 65 65 107 107 201 201 201 201 201 233 233 104 104 104
 200 200 200 200 167 146 146 146 146 146 27 27 65 65 65 65 65 65 65 65
 201 201 201 6 104 104 104 104 104 104 200 200 167 167 146 146 146 146 146 27
 27 27 65 65 65 65 65 65 65 201 6 6 6 104 104 104 104 104 104 104
 167 167 167 146 146 146 146 27 27 27 27 65 65 65 65 65 65 65 201 6
 6 6 104 104 104 104 104 104 104 167 167 167 146 146 146 146 27 27 27 27
 27 65 65 65 65 65 65 30 30 30 6 104 104 104 104 104 31 31 167 167
 167 167 146 146 61 27 27 27 27 27 65 65 65 65 65 30 30 30 30 30
 30 104 104 31 31 31 31 31 167 167 167 146 146 61 27 27 27 27 27 65
 120 65 65 30 30 30 30 30 30 30 30 31 31 31 31 31 31 31 202 202
 61 61 61 27 27 27 27 27 220 220 65 182 30 30 30 30 30 30 30 30
 31 31 31 31 31 31 202 202 202 202 61 61 61 27 27 220 220 220 220 182
 182 182 30 30 30 30 30 30 221 221 31 31 31 8 8 202 202 202 202 202
 42 61 27 67 220 220 220 182 182 182 20 20 20 20 30 99 221 221 221 221
 8 8 8 8 202 202 202 202 42 42 42 42 67 220 220 220 182 182 182 20
 20 20 20 99 99 221 221 221 221 8 8 8 8 8 8 42 42 42 42 42
 42 169 169 169 169 182 182 182 20 20 20 20 99 99 221 221 221 166 166 8
 8 8 8 42 42 42 42 42 42 169 169 169 169 169 169 182 83 83 83 83
 20 20 156 156 156 156 156 166 8 8 8 176 42 42 42 42 42 42 169 169
 169 169 169 169 83 83 83 83 83 83 83 156 156 156 156 156 166 166 119 176
 176 176 42 42 42 38 38 38 169 169 169 169 206 206 83 83 83 83 83 83
 225 156 156 156 166 166 119 176 176 176 176 176 42 42 38 38 38 169 169 169
 206 206 206 206 83 83 83 83 83 180 180 180 180 180 119 119 176 176 176 176
 176 176 38 38 38 38 38 169 206 206 206 206 206 83 83 83 83 180 180 180
 180 180 180 180 222 222 222 222 176 176 235 38 38 38 38 38 169 206 206 206
 206 206 83 83 83 83 180 180 180 180 180 180 222 222 222 222 222 222 235 235
 235 235 38 38 38 38 206 206 206 206 206 73 73 73 73 106 180 180 180 180
 180 222 222 222 222 222 222 235 235 235 235 235 124 38 134 134 134 134 134 134
 73 73 73 106 106 106 106 180 232 180 222 222 222 222 222 235 235 235 235 235
 235 235 231 231 231 134 134 134 134 163 28 28 28 106 106 106 106 232 232 222
 222 222 222 222 235 235 235 235 235 235 235 117 117 117 117 117 134 134 28 28
 28 28 106 106 106 232 232 232 147 147 222 230 230 235 235 235 235 235 235 117
 117 117 117 117 117 117 117 28 28 28 28 28 106 22 22 216 54 54 230 230
 230 230 230 230 235 235 235 117 117 117 117 117 117 117 117 117 137 137 137 28
 22 22 22 22 52 54 54 230 230 230 230 230 230 230 230 215 117 117 117 117
 117 117 117 117 137 137 137 137 137 22 22 22 52 52 52 54 230 230 230 230
 230 230 230 230 215 117 117 117 117 117 117 117 117 137 137 137 137 137 22 22
 22 52 52 52 52 230 230 230 230 230 230 215 215 215 215 117 117 117 117 117
 117 213 137 137 137 137 137 22 22 52 52 52 52 52 200 200 200 230 230 215
 215 215 215 215 117 117 117 117 117 213 213 107 137 137 201 201 201 52 52 52
 52 52 52 200 200 200 200 230 215 215 215 146 146 146 117 117 65 65 213 107
 107 107 201 201 201 201 201 52 52 52 52 200 200 200 200 200 200 146 146 146
 146 146 146 65 65 65 65 65 65 107 107 201 201 201 201 201 233 104 104 104
 104 200 200 200 200 167 146 146 146 146 146 27 27 65 65 65 65 65 65 213
 213 201 201 201 6 104 104 104 104 104 104 200 200 200 146 146 146 146 146 146
 27 27 65 65 65 65 65 65 65 213 201 201 201 6 104 104 104 104 104 104
 200 167 167 146 146 146 146 146 27 27 27 27 65 65 65 65 65 65 65 65
 201 6 6 104 104 104 104 104 104 104 167 167 146 146 146 146 146 27 27 27
 27 65 65 65 65 65 65 65 30 30 30 30 104 104 104 104 104 31 31 167
 167 146 146 146 146 27 27 27 27 27 27 65 65 65 65 65 30 30 30 30
 30 30 104 104 31 31 31 31 31 167 146 146 146 146 27 27 27 27 27 27
 65 65 65 65 30 30 30 30 30 30 30 30 31 31 31 31 31 31 202 202
 202 202 61 27 27 27 27 27 27 220 65 65 65 30 30 30 30 30 30 30
 30 31 31 31 31 31 8 202 202 202 202 202 27 27 27 27 27 27 220 220
 182 182 30 30 30 30 30 30 99 221 221 8 8 8 8 8 202 202 202 202
 202 42 138 138 138 138 138 2 2 2 182 30 30 30 30 99 99 99 221 221
 221 8 8 8 8 202 202 202 202 42 42 42 138 138 138 2 2 2 2 182
 20 20 20 99 99 99 99 221 221 221 8 8 8 8 8 8 42 42 42 42
 42 42 169 169 169 2 2 2 83 83 83 20 99 99 99 99 156 156 156 8
 8 8 8 8 42 42 42 42 42 42 42 169 169 169 169 2 83 83 83 83
 83 83 99 156 156 156 156 156 8 8 8 8 8 42 42 42 42 42 42 169
 169 169 169 169 169 83 83 83 83 83 83 83 156 156 156 156 156 119 119 119
 119 176 42 42 42 42 42 42 38 169 169 169 169 60 60 83 83 83 83 83