# vtk DataFile Version 2.0
Data set from ImportExport Version 6.5.171.b0b162591
ASCII

DATASET RECTILINEAR_GRID
DIMENSIONS 30 30 30
X_COORDINATES 30 float
-1.250000 1.250000 3.750000 6.250000 8.750000 11.250000 13.750000 16.250000 18.750000 21.250000 23.750000 26.250000 28.750000 31.250000 33.750000 36.250000 38.750000 41.250000 43.750000 46.250000 48.750000 
51.250000 53.750000 56.250000 58.750000 61.250000 63.750000 66.250000 68.750000 71.250000 
Y_COORDINATES 30 float
-1.250000 1.250000 3.750000 6.250000 8.750000 11.250000 13.750000 16.250000 18.750000 21.250000 23.750000 26.250000 28.750000 31.250000 33.750000 36.250000 38.750000 41.250000 43.750000 46.250000 48.750000 
51.250000 53.750000 56.250000 58.750000 61.250000 63.750000 66.250000 68.750000 71.250000 
Z_COORDINATES 30 float
-1.250000 1.250000 3.750000 6.250000 8.750000 11.250000 13.750000 16.250000 18.750000 21.250000 23.750000 26.250000 28.750000 31.250000 33.750000 36.250000 38.750000 41.250000 43.750000 46.250000 48.750000 
51.250000 53.750000 56.250000 58.750000 61.250000 63.750000 66.250000 68.750000 71.250000 
CELL_DATA 24389
SCALARS FeatureIds int 1
LOOKUP_TABLE default
 185 185 185 185 192 192 192 6 6 6 120 120 120 120 120 120 165 165 165 165
 165 79 79 79 79 22 185 185 185 185 185 185 185 185 192 192 6 6 6 140
 140 120 120 120 120 165 165 165 165 165 79 79 79 79 22 185 185 185 185 185
 185 185 185 185 192 219 6 189 189 140 120 120 120 120 165 165 165 165 165 79
 79 79 79 181 181 181 185 185 185 185 185 185 185 219 219 189 189 189 189 189
 120 120 120 165 165 165 165 79 79 79 79 181 181 181 181 181 185 185 185 185
 185 219 219 219 189 189 189 189 189 189 120 34 34 34 165 165 79 79 79 69
 69 181 181 181 181 185 185 185 185 219 219 219 219 189 189 189 189 189 189 189
 34 34 34 34 34 96 96 69 69 69 69 181 181 181 185 185 185 232 12 12
 219 219 59 59 59 59 59 59 59 34 34 34 34 34 96 96 96 235 235 235
 181 181 181 232 232 232 232 12 12 12 12 59 59 59 59 59 59 59 34 34
 34 34 34 96 96 96 235 235 235 235 181 181 232 232 232 232 12 12 12 12
 59 59 59 59 59 59 59 34 34 34 34 34 96 96 96 96 235 235 235 38
 38 232 232 232 232 232 12 12 12 12 76 76 76 76 76 33 33 188 188 188
 188 96 96 96 96 235 38 38 38 38 232 232 232 232 232 232 12 12 76 76
 76 76 76 76 33 33 33 188 188 188 96 96 96 96 38 38 38 38 38 66
 232 232 232 232 232 232 85 85 85 76 76 76 76 33 33 33 33 130 130 130
 130 130 38 38 38 38 38 38 66 66 232 232 232 232 85 85 85 85 85 76
 76 76 33 33 33 33 130 130 130 130 130 38 38 38 38 38 38 66 66 66
 232 232 232 85 85 85 85 85 76 76 76 33 33 33 130 130 130 130 130 130
 38 38 38 38 38 66 66 66 66 232 232 232 85 85 85 85 85 85 76 154
 154 154 154 154 130 130 130 130 130 38 38 38 38 38 66 66 66 66 232 232
 232 85 85 85 173 173 173 154 154 154 154 154 154 154 130 130 130 130 38 38
 38 38 38 66 66 66 66 232 232 173 173 173 173 173 173 173 173 154 154 154
 154 154 154 130 130 39 221 221 221 221 214 214 214 214 214 10 10 10 10 173
 173 173 173 173 173 173 154 154 154 154 154 154 154 39 221 221 221 221 221 214
 214 214 214 214 10 10 10 10 173 173 173 173 173 173 173 237 237 237 237 154
 115 115 221 221 221 221 221 221 214 214 214 214 214 10 10 10 10 10 10 173
 173 173 173 237 237 237 237 237 115 115 115 221 221 221 221 221 214 214 214 214
 214 214 10 10 10 10 10 10 10 173 173 146 237 237 237 237 237 115 115 115
 221 221 221 221 221 214 214 214 214 227 227 227 10 10 10 10 10 10 146 146
 146 146 237 237 237 114 114 114 114 114 221 221 221 221 214 214 214 214 227 227
 227 10 10 10 10 10 10 146 146 146 146 146 114 114 114 114 114 114 114 221
 221 221 221 214 214 214 227 227 227 227 227 10 10 10 10 10 146 146 146 146
 146 114 114 114 114 114 114 114 221 221 134 134 134 214 227 227 227 227 227 227
 10 10 10 10 146 146 146 146 146 146 114 114 114 114 114 114 114 134 134 134
 134 134 227 227 227 227 227 227 227 192 192 192 6 6 146 146 146 146 146 114
 114 114 114 114 114 114 134 134 134 134 134 227 227 227 227 227 227 192 192 192
 192 246 246 246 146 146 146 146 114 114 114 114 114 114 165 134 134 134 134 134
 134 227 227 185 185 185 185 192 192 192 246 246 246 246 106 120 120 114 114 114
 165 165 165 165 79 79 79 134 134 185 185 185 185 185 185 185 192 192 192 6
 6 6 6 120 120 120 120 120 165 165 165 165 165 79 79 79 79 22 185 185
 185 185 185 185 185 83 192 192 6 6 6 106 120 120 120 120 120 165 165 165
 165 165 165 79 22 22 22 22 185 185 185 185 185 185 83 83 192 6 6 6
 106 120 120 120 120 120 120 165 165 165 165 165 79 79 22 22 22 185 185 185
 185 185 185 83 83 83 219 219 189 189 120 120 120 120 120 120 165 165 165 165
 165 79 22 22 22 181 181 181 185 185 185 185 83 83 219 219 219 189 189 189
 189 120 120 120 165 165 165 165 165 165 79 69 69 181 181 181 181 185 185 185
 185 83 219 219 219 219 189 189 189 189 189 120 34 34 165 165 165 165 69 69
 69 69 69 181 181 181 185 185 185 185 219 219 219 219 219 189 189 189 189 189
 189 34 34 34 34 34 96 69 69 69 69 69 181 181 181 185 185 12 12 12
 12 219 219 219 59 59 59 59 59 59 34 34 34 34 34 96 96 96 69 69
 69 69 181 181 185 12 12 12 12 12 12 12 147 59 59 59 59 59 59 34
 34 34 34 34 96 96 96 96 69 69 69 181 181 232 232 232 12 12 12 12
 12 147 59 59 59 59 59 59 34 34 34 34 34 96 96 96 96 235 235 38
 38 38 232 232 232 232 12 12 12 12 12 76 76 76 76 76 33 33 33 34
 34 96 96 96 96 96 96 38 38 38 38 232 232 232 232 232 12 12 12 12
 76 76 76 76 76 33 33 33 33 188 96 96 96 96 96 38 38 38 38 38
 66 232 232 232 232 232 12 12 85 76 76 76 76 76 33 33 33 33 130 130
 130 130 97 97 38 38 38 38 38 66 66 232 232 232 232 232 85 85 85 85
 76 76 76 33 33 33 33 130 130 130 130 97 97 38 38 38 38 66 66 66
 66 232 232 232 85 85 85 85 85 85 76 76 33 33 33 130 130 130 130 130
 130 97 38 38 38 38 66 66 66 66 232 232 232 85 85 85 85 85 85 85
 76 154 154 154 130 130 130 130 130 130 38 38 38 38 38 66 66 66 66 232
 232 232 85 85 85 85 85 85 85 154 154 154 154 154 130 130 130 130 39 39
 38 38 38 38 66 66 66 66 232 232 173 173 173 173 173 173 173 173 154 154
 154 154 154 154 130 39 39 39 39 221 214 214 214 214 214 214 66 10 10 10
 173 173 173 173 173 173 173 237 237 237 154 154 154 39 39 39 39 221 221 214
 214 214 214 214 214 10 10 10 10 10 173 173 173 173 173 173 237 237 237 237
 237 115 115 39 39 39 221 221 214 214 214 214 214 214 10 10 10 10 10 10
 173 173 173 173 237 237 237 237 237 237 115 29 29 221 221 221 221 214 214 116
 214 214 214 10 10 10 10 10 10 10 173 173 173 237 237 237 237 237 237 115
 29 29 29 221 221 221 214 214 214 214 227 227 227 10 10 10 10 10 10 10
 146 146 146 237 237 237 114 114 114 114 29 29 29 221 221 214 214 214 214 227
 227 227 10 10 10 10 10 10 146 146 146 146 146 114 114 114 114 114 114 29
 29 29 29 221 214 214 214 227 227 227 227 227 10 10 10 10 10 146 146 146
 146 146 114 114 114 114 114 114 114 29 29 134 134 134 214 227 227 227 227 227
 227 10 10 10 10 6 146 146 146 146 146 114 114 114 114 114 114 114 134 134
 134 134 134 134 227 227 227 227 227 227 192 192 192 6 6 6 106 146 106 106
 114 114 114 114 114 114 114 134 134 134 134 134 134 227 227 227 227 227 192 192
 192 192 6 6 6 106 106 106 106 114 114 114 114 114 114 114 134 134 134 134
 134 134 227 227 185 185 185 192 192 192 192 6 6 6 106 106 106 106 106 114
 114 114 165 165 165 165 134 134 134 134 22 185 185 185 185 185 185 192 192 192
 6 6 6 106 106 106 120 120 120 165 165 165 165 165 165 79 79 22 22 22
 185 185 185 185 185 83 83 83 192 6 6 106 106 106 120 120 120 120 165 165
 165 165 165 165 165 22 22 22 22 22 185 185 185 185 83 83 83 83 6 6
 106 106 120 120 120 120 120 120 165 165 165 165 165 79 22 22 22 22 22 185
 185 185 185 83 83 83 83 219 219 189 189 120 120 120 120 120 120 165 165 165
 165 165 165 22 22 22 22 181 185 185 185 185 119 119 119 219 219 219 189 189
 189 189 120 120 120 112 165 165 165 165 165 69 69 69 22 181 181 181 185 185
 185 119 119 219 219 219 219 189 189 189 189 189 120 34 34 34 165 165 165 69
 69 69 69 69 181 181 181 185 185 185 119 119 219 219 219 219 189 189 189 189
 189 189 34 34 34 34 34 96 69 69 69 69 69 69 181 181 185 185 12 12
 12 12 219 219 219 147 59 59 59 59 59 34 34 34 34 34 96 96 96 69
 69 69 69 69 31 12 12 12 12 12 12 12 219 147 147 59 59 59 59 59
 34 34 34 34 34 96 96 96 96 69 69 69 31 31 12 12 12 12 12 12
 12 12 147 147 59 59 59 59 59 34 34 34 34 96 96 96 96 96 69 69
 69 31 28 232 232 232 12 12 12 12 12 12 147 59 59 59 76 33 33 33
 34 34 96 96 96 96 96 97 97 38 28 28 232 232 232 232 12 12 12 12
 12 76 76 76 76 76 33 33 33 33 34 96 96 96 96 97 97 97 38 38
 28 232 232 232 232 232 12 12 12 85 76 76 76 76 76 33 33 33 33 130
 130 130 130 97 97 97 97 38 38 38 66 66 232 232 232 232 12 85 85 85
 76 76 76 76 33 33 33 33 130 130 130 130 97 97 97 97 38 38 66 66
 66 66 232 232 232 85 85 85 85 85 85 76 76 33 33 33 130 130 130 130
 130 97 97 97 97 38 38 66 66 66 66 232 232 232 85 85 85 85 85 85
 85 76 33 33 33 130 130 130 130 130 130 97 97 38 72 72 72 66 66 66
 232 232 232 53 53 53 53 85 85 85 154 154 154 20 20 130 130 130 39 39
 39 251 72 72 72 72 66 66 66 232 232 53 53 53 53 53 53 53 53 154
 154 154 20 20 20 20 39 39 39 39 251 72 72 72 72 214 214 66 10 53
 53 53 53 53 53 53 53 53 253 253 253 20 20 20 20 39 39 39 39 39
 214 214 214 214 214 214 10 10 10 10 53 53 53 53 53 53 53 253 253 253
 253 20 20 20 39 39 39 39 214 214 214 214 214 214 214 10 10 10 10 10
 53 53 53 53 53 253 253 253 253 253 253 20 29 29 39 39 221 221 214 214
 214 214 214 214 10 10 10 10 10 10 53 53 53 53 253 253 253 253 253 253
 253 29 29 29 29 29 221 214 214 214 214 227 227 227 10 10 10 10 10 10
 53 53 53 253 253 253 253 253 114 114 29 29 29 29 29 29 214 214 214 214
 227 227 227 10 10 10 10 10 10 209 146 146 132 253 64 114 114 114 114 114
 29 29 29 29 134 214 214 214 227 227 227 227 227 10 10 10 10 10 146 146
 146 146 132 114 114 114 114 114 114 114 29 134 134 134 134 134 227 227 227 227
 227 227 10 10 10 10 6 6 106 146 106 132 114 114 114 114 114 114 114 134
 134 134 134 134 134 227 227 227 227 227 227 192 192 192 6 6 6 106 106 106
 106 114 114 114 114 114 114 114 134 134 134 134 134 134 227 227 227 227 227 192
 192 192 192 6 6 6 106 106 106 106 106 114 114 114 114 114 134 134 134 134
 134 134 134 227 227 185 185 185 83 192 192 192 246 246 106 106 106 106 106 106
 114 114 114 165 165 165 134 134 134 134 134 22 22 185 185 185 185 83 83 192
 192 246 6 106 106 106 106 106 106 106 165 165 165 165 165 165 134 134 22 22
 22 22 185 185 185 83 83 83 83 192 246 6 106 106 106 106 120 120 120 165
 165 165 165 56 56 56 22 22 22 22 22 185 185 185 83 83 83 83 83 246
 6 106 106 106 120 120 120 120 112 112 165 165 56 56 56 22 22 22 22 22
 185 185 185 83 119 119 119 83 83 219 219 189 189 120 120 120 120 112 112 112
 165 165 56 56 22 22 22 22 22 185 185 185 119 119 119 119 219 219 219 219
 189 189 189 120 120 112 112 112 112 165 165 56 69 69 22 22 22 181 181 185
 185 119 119 119 219 219 219 219 219 189 189 189 189 120 112 112 112 112 112 139
 139 69 69 69 69 31 31 31 31 185 119 119 119 219 219 219 219 219 189 189
 189 189 189 34 34 34 34 152 139 139 69 69 69 69 31 31 31 31 12 12
 12 12 12 219 219 219 147 147 59 59 59 59 34 34 34 34 152 152 96 96
 69 69 69 31 31 31 31 12 12 12 12 12 12 219 147 147 147 59 59 59
 59 34 34 34 34 152 96 96 96 96 69 69 31 31 31 28 12 12 12 12
 12 12 12 147 147 147 59 59 59 59 34 34 34 34 152 96 96 96 96 69
 69 31 31 28 28 183 12 12 12 12 12 12 12 147 147 59 59 59 33 33
 33 127 127 96 96 96 96 96 97 97 28 28 28 28 183 232 12 12 12 12
 12 12 76 76 76 76 76 33 33 33 127 127 127 96 96 97 97 97 97 28
 28 28 183 183 232 232 12 12 12 12 12 126 76 76 76 76 33 33 33 127
 127 127 130 97 97 97 97 97 28 28 28 28 183 232 232 232 12 12 12 126
 126 126 76 76 76 33 33 33 127 127 130 130 97 97 97 97 97 97 28 28
 66 66 66 232 232 232 12 126 126 126 126 126 76 76 33 33 33 130 130 130
 130 130 97 97 97 97 97 28 28 66 66 66 232 232 232 126 126 126 126 126
 85 85 76 33 33 33 130 130 130 130 130 97 97 97 97 72 72 72 72 66
 66 232 232 53 53 53 53 53 53 53 53 122 122 122 20 20 20 130 39 39
 39 251 251 72 72 72 72 72 66 66 11 11 53 53 53 53 53 53 53 53
 122 122 122 20 20 20 20 39 39 39 251 251 251 72 72 72 158 11 11 11
 11 53 53 53 53 53 53 53 53 253 253 253 20 20 20 20 39 39 39 251
 251 251 158 158 158 158 158 11 11 10 10 53 53 53 53 53 53 53 253 253
 253 253 20 20 20 39 39 39 251 251 251 158 158 158 158 158 10 10 10 10
 10 53 53 53 53 53 253 253 253 253 253 253 20 20 39 39 39 251 251 214
 214 158 158 158 158 10 10 10 10 10 209 209 53 53 53 253 253 253 253 253
 253 20 29 29 29 29 29 29 214 214 214 158 227 227 227 10 10 10 10 209
 209 209 209 209 132 64 64 64 64 64 114 29 29 29 29 29 29 214 214 214
 158 227 227 227 10 10 10 10 209 209 209 209 132 132 132 64 64 64 114 114
 29 29 29 29 29 29 29 214 214 227 227 227 227 227 10 10 10 209 209 209
 132 132 132 132 132 64 114 114 114 114 29 29 134 134 134 134 134 227 227 227
 227 227 35 10 10 10 6 209 209 106 132 132 132 132 114 114 114 114 114 29
 134 134 134 134 134 134 227 227 35 35 35 35 192 192 192 6 6 106 106 106
 106 132 132 114 114 114 114 114 134 134 134 134 134 134 134 227 227 35 35 35
 35 192 192 192 246 246 106 106 106 106 106 106 114 114 114 114 114 134 134 134
 134 134 134 134 35 35 35 35 83 83 192 192 192 246 246 106 106 106 106 106
 106 106 114 114 114 165 134 134 134 134 134 134 22 22 35 185 185 83 83 83
 192 192 246 246 106 106 106 106 106 106 106 114 165 165 165 165 56 134 134 22
 22 22 22 185 185 83 83 83 83 83 192 191 191 191 106 106 106 120 120 112
 112 112 56 56 56 56 56 22 22 22 22 22 185 185 83 83 83 83 83 83
 191 191 191 106 106 120 120 120 112 112 112 112 56 56 56 56 56 22 22 22
 22 185 185 83 83 119 119 119 83 219 219 149 149 234 120 120 120 112 112 112
 112 112 56 56 56 22 22 22 22 22 31 185 83 119 119 119 119 219 219 219
 219 234 234 234 60 112 112 112 112 112 112 56 56 56 22 22 22 22 31 31
 31 83 119 119 119 119 219 219 219 219 234 234 234 60 60 112 112 112 112 112
 139 139 139 69 69 31 31 31 31 31 31 119 119 119 219 219 219 219 219 147
 234 234 60 60 112 112 112 112 152 139 139 139 69 69 31 31 31 31 31 31
 12 12 12 12 219 219 219 147 147 234 234 60 60 34 34 152 152 152 152 139
 139 69 69 31 31 31 31 31 12 12 12 12 12 12 219 147 147 147 147 59
 59 60 34 34 152 152 152 152 152 96 96 69 31 31 31 31 28 12 12 12
 12 12 12 12 147 147 147 147 59 59 59 34 34 152 152 152 152 96 96 96
 97 31 31 31 31 28 183 12 12 12 12 12 12 12 147 147 147 59 220 33
 127 127 127 127 152 152 96 96 97 97 97 28 28 28 183 183 183 12 12 12
 12 12 12 147 76 76 76 76 33 127 127 127 127 127 96 96 97 97 97 97
 28 28 28 183 183 183 12 12 12 12 12 12 126 126 76 76 76 33 127 127
 127 127 127 127 97 97 97 97 97 28 28 28 183 183 183 232 12 12 12 12
 126 126 126 126 76 76 33 127 127 127 127 127 130 97 97 97 97 97 28 28
 28 28 183 183 232 232 12 12 126 126 126 126 126 76 220 33 127 127 127 127
 127 130 97 97 97 97 97 28 28 28 66 66 66 232 232 12 126 126 126 126
 126 126 85 122 122 122 127 127 130 130 130 39 97 97 97 97 72 72 72 72
 11 11 11 11 11 53 53 218 218 218 53 53 122 122 122 122 20 20 20 39
 39 251 251 251 251 72 72 72 72 11 11 11 11 11 53 53 53 53 53 53
 53 122 122 122 122 20 20 20 39 39 251 251 251 251 72 72 72 158 11 11
 11 11 11 53 53 53 53 53 53 53 122 122 122 122 20 20 20 39 39 251
 251 251 251 158 158 158 158 158 11 11 11 11 53 53 53 53 53 53 53 253
 253 253 253 20 20 20 39 39 251 251 251 251 158 158 158 158 158 11 11 10
 10 209 209 53 53 53 53 253 253 253 253 253 253 20 207 207 39 251 251 251
 158 158 158 158 158 158 10 10 10 10 209 209 209 209 209 209 64 64 64 64
 64 64 64 207 29 29 29 207 207 158 158 158 158 158 158 227 10 10 10 209
 209 209 209 209 132 132 64 64 64 64 64 64 207 29 29 29 29 29 158 158
 158 158 227 227 227 10 10 10 209 209 209 209 209 132 132 132 64 64 64 64
 64 207 29 29 29 207 207 158 158 158 158 227 35 35 35 10 10 209 209 209
 209 209 132 132 132 132 64 64 64 114 207 207 207 207 134 134 134 134 227 227
 35 35 35 35 35 10 209 209 209 209 209 132 132 132 132 132 64 64 114 114
 207 134 134 134 134 134 134 35 35 35 35 35 35 35 192 192 6 209 106 106
 106 132 132 132 132 114 114 114 114 134 134 134 134 134 134 134 35 35 35 35
 35 35 192 192 192 246 191 106 106 106 106 106 132 132 114 114 114 144 134 134
 134 134 134 134 134 35 35 35 35 35 35 192 192 192 246 191 106 106 106 106
 106 106 106 114 114 144 144 144 144 134 134 134 134 22 35 35 185 83 83 83
 83 83 192 246 191 191 106 106 106 106 106 106 106 165 165 165 56 56 56 134
 22 22 22 22 35 185 83 83 83 83 83 83 191 191 191 191 191 106 120 112
 112 112 112 112 56 56 56 56 56 22 22 22 22 185 185 83 83 83 83 83
 83 191 149 149 159 159 159 60 112 112 112 112 112 56 56 56 56 56 22 22
 22 22 31 185 83 83 83 83 83 83 159 159 149 149 234 234 60 112 112 112
 112 112 112 56 56 56 56 22 22 22 31 31 31 83 83 119 119 119 219 219
 219 234 234 234 234 60 60 112 112 112 112 112 56 139 56 56 22 31 31 31
 31 31 31 107 107 119 119 219 219 219 234 234 234 234 60 60 112 112 112 112
 112 139 139 139 139 31 31 31 31 31 31 123 107 107 107 219 219 219 219 234
 234 234 234 60 60 60 112 112 112 152 139 139 139 139 31 31 31 31 31 31
 123 123 107 107 198 198 198 198 198 234 234 234 60 60 60 112 152 152 152 152
 139 139 139 31 31 31 31 31 123 123 123 12 12 12 198 198 198 198 147 234
 234 60 60 60 152 152 152 152 152 152 139 139 31 31 31 31 31 123 123 123
 12 12 12 198 198 198 198 147 147 234 60 60 60 152 152 152 152 152 152 96
 96 31 31 31 31 28 183 183 183 12 12 12 12 198 198 198 147 147 220 220
 220 127 127 127 127 152 152 152 96 97 97 28 28 28 28 183 183 183 12 12
 12 12 12 12 198 220 220 220 220 220 127 127 127 127 127 152 97 97 97 97
 28 28 28 28 183 183 183 183 12 12 12 12 12 126 126 220 220 220 220 127
 127 127 127 127 127 97 97 97 97 28 28 28 28 183 183 183 183 12 12 12
 12 126 126 126 220 220 220 220 127 127 127 127 127 127 97 97 97 97 97 28
 28 28 183 183 183 183 12 12 12 126 126 126 126 126 220 220 220 127 127 127
 127 127 127 97 97 97 97 167 28 28 28 183 183 183 11 11 62 62 218 218
 218 218 218 218 220 122 122 122 127 127 127 130 97 97 97 167 167 167 28 28
 11 11 11 11 11 11 129 218 218 218 218 218 218 122 122 122 122 122 20 20
 39 251 251 251 251 251 167 72 72 11 11 11 11 11 11 129 129 218 218 218
 53 53 122 122 122 122 122 20 20 39 251 251 251 251 251 72 72 72 11 11
 11 11 11 11 129 129 53 53 53 53 53 122 122 122 122 122 20 20 39 251
 251 251 251 251 158 158 158 158 11 11 11 11 11 129 53 53 53 53 53 53
 122 122 122 42 42 20 207 207 251 251 251 251 158 158 158 158 158 11 11 11
 11 11 209 209 209 209 53 53 42 42 42 42 42 42 207 207 207 207 251 251
 251 158 158 158 158 158 158 11 11 11 209 209 209 209 209 209 209 64 64 64
 64 64 64 64 207 207 207 207 207 207 158 158 158 158 158 158 11 10 10 209
 209 209 209 209 209 209 132 64 64 64 64 64 64 207 207 207 207 207 207 158
 158 158 158 158 35 35 35 209 209 209 209 209 209 209 132 132 132 64 64 64
 64 64 207 207 207 207 207 207 207 158 158 158 35 35 35 35 35 209 209 209
 209 209 209 132 132 132 132 64 64 64 64 207 207 207 207 207 207 207 158 35
 35 35 35 35 35 35 209 209 209 209 209 194 132 132 132 132 132 64 64 64
 207 207 207 207 134 134 134 134 35 35 35 35 35 35 35 192 191 191 191 191
 191 132 132 132 132 132 64 64 144 144 144 144 134 134 134 134 134 35 35 35
 35 35 35 35 191 191 191 191 191 191 106 106 132 132 132 64 144 144 144 144
 144 144 134 134 134 134 35 35 35 35 35 35 83 83 191 191 191 191 191 106
 106 106 132 132 64 144 144 144 144 144 170 170 134 134 22 35 35 35 83 83
 83 83 83 191 191 191 191 191 191 106 106 106 106 106 170 170 170 170 170 170
 170 22 22 22 22 35 141 141 83 83 83 83 191 191 149 149 159 191 191 191
 14 14 14 14 56 56 56 56 56 56 22 22 22 22 141 141 141 83 83 83
 83 159 159 159 149 159 159 159 60 14 14 14 14 14 56 56 56 56 56 22
 22 22 31 31 31 141 83 83 83 83 159 159 159 149 149 234 234 60 60 14
 14 14 14 14 56 56 56 56 22 31 31 31 31 31 31 107 107 107 119 198
 219 149 149 234 234 234 60 60 14 14 14 14 14 56 56 56 56 31 31 31
 31 31 31 107 107 107 107 107 198 198 198 234 234 234 234 60 60 60 14 14
 14 14 139 139 139 139 31 31 31 31 31 31 123 107 107 107 198 198 198 198
 234 234 234 234 60 60 60 14 14 14 152 139 139 139 139 31 31 31 31 31
 123 123 123 107 107 198 198 198 198 198 234 234 234 60 60 60 60 152 152 152
 152 139 139 139 31 31 31 31 31 123 123 123 123 198 198 198 198 198 198 234
 234 234 60 60 60 60 152 152 152 152 152 139 31 31 31 31 31 31 123 123
 123 123 12 198 198 198 198 198 198 234 234 60 60 60 152 152 152 152 152 152
 152 55 55 55 31 31 123 123 183 123 12 12 12 198 198 198 198 198 220 220
 220 220 220 127 127 127 152 152 152 152 55 28 28 28 28 28 183 183 183 183
 12 12 12 198 198 198 220 220 220 220 220 220 127 127 127 127 152 97 97 97
 97 28 28 28 28 183 183 183 183 12 12 12 12 198 198 220 220 220 220 220
 220 127 127 127 127 127 97 97 97 97 28 28 28 28 183 183 183 183 12 12
 12 12 210 126 126 220 220 220 220 127 127 127 127 127 127 97 97 97 167 167
 28 28 28 183 183 183 183 62 62 62 62 126 126 126 220 220 220 220 127 127
 127 127 127 127 97 97 167 167 167 167 28 28 183 183 11 11 62 62 62 62
 218 218 218 218 220 220 220 122 127 127 127 127 252 131 131 131 131 167 167 167
 28 11 11 11 11 11 62 129 129 218 218 218 218 218 122 122 122 122 122 252
 252 252 251 251 251 131 131 167 167 72 11 11 11 11 11 11 129 129 129 218
 218 218 122 122 122 122 122 122 252 252 252 251 251 251 251 251 167 158 158 11
 11 11 11 11 11 129 129 129 129 53 53 122 122 122 122 122 122 252 252 252
 251 251 251 251 251 158 158 158 158 11 11 11 11 11 129 129 129 53 53 53
 122 122 122 42 42 42 252 252 207 251 251 251 251 158 158 158 158 158 11 11
 11 11 11 209 209 209 209 209 209 42 42 42 42 42 42 207 207 207 207 207
 207 251 158 158 158 158 158 11 11 11 11 209 209 209 209 209 209 209 64 64
 64 64 64 64 207 207 207 207 207 207 207 158 158 158 158 158 158 11 11 209
 209 209 209 209 209 209 209 132 64 64 64 64 64 207 207 207 207 207 207 207
 158 158 158 158 35 35 35 35 209 209 209 209 209 209 209 194 132 132 64 64
 64 64 207 207 207 207 207 207 207 207 158 158 158 35 35 35 35 35 209 209
 209 209 209 194 194 132 132 132 64 64 64 207 207 207 207 207 207 207 207 158
 35 35 35 35 35 35 35 209 209 209 209 209 194 194 132 132 132 132 64 64
 207 207 207 207 207 207 207 207 35 35 35 35 35 35 35 35 191 191 191 191
 191 191 191 132 132 132 132 64 64 144 144 144 144 144 170 134 134 35 35 35
 35 35 35 35 35 191 191 191 191 191 191 191 191 132 132 132 64 144 144 144
 144 144 144 170 134 134 35 35 35 35 35 35 35 83 191 191 191 191 191 191
 191 191 106 132 132 64 170 170 170 144 144 170 170 170 170 35 35 35 35 35
 83 83 83 191 191 191 191 191 191 191 191 191 191 132 170 170 170 170 170 170
 170 170 170 22 22 35 35 141 141 141 141 141 83 191 191 149 149 159 191 191
 191 14 14 14 14 14 170 144 144 144 170 170 22 100 141 141 141 141 141 141
 141 83 159 159 159 149 159 159 191 60 14 14 14 14 14 14 56 56 56 56
 22 100 100 100 141 141 141 141 141 141 83 159 159 159 149 149 149 234 60 60
 14 14 14 14 14 56 56 56 56 100 100 100 100 100 31 141 107 107 107 107
 198 159 149 149 234 234 234 60 60 14 14 14 14 14 14 56 56 56 31 31
 31 31 31 31 107 107 107 107 107 198 198 198 234 234 234 60 60 60 14 14
 14 14 14 14 139 139 139 31 31 31 31 31 31 123 107 107 107 107 198 198
 198 234 234 234 60 60 60 60 14 14 14 14 139 139 139 31 31 31 31 31
 31 123 123 123 107 107 198 198 198 198 198 234 234 234 60 60 60 60 14 152
 152 152 139 139 31 31 31 31 31 31 123 123 123 123 198 198 198 198 198 198
 234 234 234 60 60 60 60 152 152 152 152 152 55 55 55 31 31 31 123 123
 123 123 123 198 198 198 198 198 198 198 234 234 60 60 60 60 152 152 152 152
 152 55 55 55 55 55 55 123 123 123 123 123 198 198 198 198 198 198 198 220
 220 220 220 220 127 127 127 152 152 152 55 55 55 55 55 55 28 183 183 183
 183 12 198 198 198 198 198 220 220 220 220 220 220 127 127 127 127 152 55 55
 55 55 55 28 28 28 183 183 183 183 12 12 198 198 210 210 210 220 220 220
 220 220 127 127 127 127 127 97 97 167 167 131 131 28 28 183 183 183 183 62
 62 62 210 210 210 210 220 220 220 220 220 127 127 127 127 127 97 97 167 167
 131 131 28 28 183 183 183 62 62 62 62 62 210 210 210 220 220 220 220 220
 127 127 127 127 252 167 167 167 167 131 167 167 28 11 11 62 62 62 62 62
 62 210 210 210 220 220 220 220 220 122 127 252 252 252 252 167 167 131 131 167
 167 167 11 11 11 11 62 62 62 129 129 218 218 218 218 122 122 122 122 252
 252 252 252 252 251 131 131 131 167 167 167 11 11 11 11 11 11 129 129 129
 129 218 218 122 122 122 122 122 252 252 252 252 252 251 251 251 131 167 167 158
 11 11 11 11 11 11 129 129 129 129 53 53 122 122 122 122 122 252 252 252
 252 252 251 251 251 251 158 158 158 11 11 11 11 11 11 129 129 129 129 53
 53 122 122 122 42 42 252 252 252 252 207 207 251 251 158 158 158 158 11 11
 11 11 11 11 129 129 209 209 209 193 193 64 42 42 42 42 252 207 207 207
 207 207 207 158 158 158 158 158 11 11 11 11 11 209 209 209 209 209 193 193
 64 64 64 64 64 207 207 207 207 207 207 207 158 158 158 158 158 11 11 11
 11 209 209 209 209 209 209 193 193 64 64 64 64 64 207 207 207 207 207 207
 207 207 158 158 158 35 35 35 35 209 209 209 209 209 209 194 194 194 132 64
 64 64 64 207 207 207 207 207 207 207 207 158 158 158 35 35 35 35 35 209
 209 209 209 209 194 194 194 132 132 64 64 64 207 207 207 207 207 207 207 207
 207 158 35 35 35 35 35 35 153 153 153 153 191 194 194 194 132 132 132 64
 64 207 207 207 207 207 207 207 207 35 35 35 35 35 35 35 35 153 153 191
 191 191 191 191 194 132 132 132 64 170 170 170 144 144 144 170 170 170 35 35
 35 35 35 35 35 35 191 191 191 191 191 191 191 191 132 132 132 64 170 170
 170 170 144 170 170 170 170 35 35 35 35 35 35 35 191 191 191 191 191 191
 191 191 191 191 191 132 170 170 170 170 170 144 170 170 170 170 35 35 35 141
 141 141 141 141 191 191 191 191 191 191 191 191 191 191 191 170 170 170 170 170
 144 170 170 170 170 22 35 35 141 141 141 141 141 137 191 191 149 149 159 177
 177 177 14 14 14 14 14 170 144 144 144 144 144 100 100 141 141 141 141 141
 141 141 137 159 159 159 149 159 159 177 177 14 14 14 14 14 14 56 56 56
 144 144 100 100 100 141 141 141 141 141 141 141 159 159 159 149 149 149 234 60
 14 14 14 14 14 14 56 56 56 56 100 100 100 100 100 141 141 141 107 107
 107 198 159 149 149 234 234 234 60 60 14 14 14 14 14 14 56 56 162 100
 100 100 100 100 100 107 107 107 107 107 198 198 198 234 234 234 234 60 60 14
 14 14 14 14 14 139 162 162 100 100 100 100 100 123 123 107 107 107 198 198
 198 198 234 234 234 60 60 60 60 14 14 14 14 14 139 162 162 31 31 31
 31 31 123 123 123 107 107 198 198 198 198 198 234 234 234 60 60 60 60 14
 152 152 152 139 162 55 31 31 31 31 31 123 123 123 123 198 198 198 198 198
 198 234 234 234 60 60 60 60 230 230 230 152 152 55 55 55 55 55 31 123
 123 123 123 123 198 198 198 198 198 198 234 234 234 60 60 60 60 230 230 230
 230 230 55 55 55 55 55 55 123 123 123 123 123 198 198 198 198 198 198 234
 220 220 220 220 220 127 230 230 230 230 230 55 55 55 55 55 55 55 183 183
 183 183 198 198 198 198 198 198 210 220 220 220 220 220 127 230 230 230 230 230
 55 55 55 55 55 55 55 183 183 183 183 62 62 198 210 210 210 210 220 220
 220 220 220 127 127 230 230 230 230 55 55 55 55 131 216 28 183 183 183 62
 62 62 62 210 210 210 210 220 220 220 220 220 127 127 127 127 230 216 216 216
 216 216 216 216 216 183 183 62 62 62 62 62 210 210 210 210 210 220 220 220
 220 127 127 252 252 252 216 216 216 216 167 216 216 216 11 11 62 62 62 62
 62 62 210 210 210 210 220 220 220 220 252 252 252 252 252 252 216 216 216 216
 216 216 216 11 11 11 11 62 62 62 62 129 210 210 210 110 41 122 122 252
 252 252 252 252 252 252 216 216 131 216 216 216 11 11 11 11 11 62 62 129
 129 129 210 110 110 122 122 122 252 252 252 252 252 252 252 133 251 131 216 216
 216 11 11 11 11 11 11 129 129 129 129 129 110 122 122 122 122 252 252 252
 252 252 252 252 133 133 133 158 158 158 11 11 11 11 11 11 129 129 129 129
 193 193 193 122 122 42 252 252 252 252 252 252 207 207 207 133 158 158 158 11
 11 11 11 11 11 129 129 209 193 193 193 193 193 42 42 252 252 252 252 207
 207 207 207 207 158 158 158 158 11 11 11 11 11 11 209 209 209 193 193 193
 193 193 64 64 64 64 207 207 207 207 207 207 207 207 158 158 158 224 11 11
 11 11 209 209 209 209 193 193 193 193 193 64 64 64 64 207 207 207 207 207
 207 207 207 224 158 224 224 35 35 90 90 90 209 209 16 16 193 193 193 193
 64 64 64 64 207 207 207 207 207 207 207 207 224 224 224 35 35 35 90 90
 153 153 153 16 16 16 194 194 194 132 64 64 18 18 207 207 207 207 207 207
 207 224 224 224 35 35 35 35 153 153 153 153 153 16 16 194 194 194 132 132
 64 18 18 18 207 207 207 207 207 207 224 35 35 35 35 35 91 153 153 153
 153 153 191 191 191 177 177 132 132 18 18 18 170 170 170 170 170 170 170 35
 35 35 35 35 35 91 153 153 153 153 191 191 191 177 177 177 177 177 18 18
 170 170 170 170 170 170 170 170 35 35 35 141 141 141 141 91 153 191 191 191
 191 191 177 177 177 177 177 177 170 170 170 170 144 144 170 170 170 170 35 35
 141 141 141 141 141 191 191 191 191 191 191 177 177 177 177 177 177 170 170 170
 144 144 144 144 144 144 144 141 141 141 141 141 141 141 137 137 191 149 149 159
 177 177 177 177 14 14 14 14 144 144 144 144 144 68 100 100 141 141 141 141
 141 141 141 137 137 159 159 149 149 159 177 177 14 14 14 14 14 14 144 144
 144 144 100 100 100 100 141 141 141 141 141 141 137 159 159 149 149 149 149 234
 60 14 14 14 14 14 14 14 56 162 162 100 100 100 100 100 141 141 141 141
 141 95 95 95 149 149 234 234 234 60 60 14 14 14 14 14 14 162 162 162
 162 100 100 100 100 100 141 107 107 107 95 95 95 95 234 234 234 234 60 60
 14 14 14 14 14 14 162 162 162 162 100 100 100 100 123 123 107 107 107 198
 95 95 95 234 234 234 234 60 60 60 14 14 14 14 14 162 162 162 162 100
 100 100 100 123 123 123 107 107 198 198 198 198 198 234 234 234 60 60 60 14
 14 230 230 230 162 162 162 162 55 55 55 31 123 123 123 123 198 198 198 198
 198 198 234 234 234 60 60 60 94 230 230 230 230 230 162 55 55 55 55 55
 55 123 123 123 123 198 198 198 198 198 198 234 234 234 60 60 94 230 230 230
 230 230 230 55 55 55 55 55 55 55 123 123 123 123 198 198 198 198 198 198
 210 187 187 187 187 187 230 230 230 230 230 230 55 55 55 55 55 55 55 203
 203 203 203 198 198 198 210 210 210 210 187 187 187 187 187 143 230 230 230 230
 230 55 55 55 55 55 55 55 203 203 203 203 62 62 210 210 210 210 210 187