# vtk DataFile Version 2.0
Data set from ImportExport Version 6.5.171.b0b162591
ASCII

DATASET RECTILINEAR_GRID
DIMENSIONS 30 30 30
X_COORDINATES 30 float
-1.250000 1.250000 3.750000 6.250000 8.750000 11.250000 13.750000 16.250000 18.750000 21.250000 23.750000 26.250000 28.750000 31.250000 33.750000 36.250000 38.750000 41.250000 43.750000 46.250000 48.750000 
51.250000 53.750000 56.250000 58.750000 61.250000 63.750000 66.250000 68.750000 71.250000 
Y_COORDINATES 30 float
-1.250000 1.250000 3.750000 6.250000 8.750000 11.250000 13.750000 16.250000 18.750000 21.250000 23.750000 26.250000 28.750000 31.250000 33.750000 36.250000 38.750000 41.250000 43.750000 46.250000 48.750000 
51.250000 53.750000 56.250000 58.750000 61.250000 63.750000 66.250000 68.750000 71.250000 
Z_COORDINATES 30 float
-1.250000 1.250000 3.750000 6.250000 8.750000 11.250000 13.750000 16.250000 18.750000 21.250000 23.750000 26.250000 28.750000 31.250000 33.750000 36.250000 38.750000 41.250000 43.750000 46.250000 48.750000 
51.250000 53.750000 56.250000 58.750000 61.250000 63.750000 66.250000 68.750000 71.250000 
CELL_DATA 24389
SCALARS FeatureIds int 1
LOOKUP_TABLE default
 135 135 171 171 171 171 221 221 221 52 52 52 52 198 198 198 198 198 246 246
 246 246 246 86 86 86 147 147 147 135 135 171 171 171 171 221 221 168 168 52
 52 52 198 198 198 198 198 134 246 246 246 246 86 86 86 86 147 147 135 135
 171 171 171 171 171 168 168 168 52 52 198 198 198 198 198 198 134 134 246 246
 86 86 86 86 86 86 147 135 135 171 171 171 171 171 168 168 168 168 52 198
 198 198 198 198 198 58 58 202 202 63 63 63 63 63 63 63 101 101 101 101
 101 101 101 168 168 168 168 168 198 198 198 198 47 58 58 58 58 63 63 63
 63 63 63 63 63 101 101 101 101 101 101 101 101 168 128 128 128 198 198 47
 47 47 58 58 58 58 63 63 63 63 63 63 63 63 101 101 101 101 101 101
 101 101 128 128 128 128 96 96 47 47 47 58 58 58 148 12 12 63 63 63
 63 63 63 129 101 101 101 101 101 101 101 128 128 66 66 66 96 96 47 47
 148 148 148 148 148 12 12 12 63 63 63 63 129 129 129 101 101 101 101 101
 66 66 66 66 66 66 96 47 47 148 148 148 148 148 12 12 12 63 63 63
 129 129 129 129 129 101 101 151 151 151 66 66 66 66 66 66 47 148 148 148
 148 148 148 12 12 12 63 63 129 129 129 129 129 205 205 205 151 151 66 66
 66 66 66 115 115 115 148 148 124 124 148 148 148 17 17 226 149 129 129 129
 129 129 129 205 205 235 235 235 66 66 66 103 103 103 115 115 124 124 124 124
 124 148 149 149 226 149 129 129 129 129 129 129 205 235 235 235 235 97 97 103
 103 103 103 103 103 124 124 124 124 124 149 149 149 149 149 149 129 129 129 129
 129 235 235 235 235 235 97 97 103 103 103 103 103 103 124 124 124 124 124 149
 149 149 149 149 149 129 129 129 129 129 235 235 235 235 235 97 97 142 227 103
 103 103 85 85 124 124 124 125 149 149 149 149 149 149 149 129 129 129 183 183
 183 235 235 235 142 142 142 227 227 227 227 85 85 85 85 125 125 125 149 149
 149 149 149 149 129 183 183 183 183 183 183 183 45 45 142 142 142 227 227 85
 85 85 85 230 125 125 125 125 42 42 42 42 42 112 183 183 183 183 183 183
 183 45 45 45 142 142 142 142 85 85 85 85 230 125 125 125 125 42 42 42
 42 42 112 112 183 183 183 183 183 183 45 45 142 142 142 142 142 85 85 85
 85 230 125 125 125 10 42 42 42 42 42 112 112 112 183 183 183 183 183 45
 45 142 142 142 142 81 81 85 85 85 230 125 10 10 10 10 10 42 42 112
 112 112 112 112 183 183 183 183 45 45 142 142 81 81 81 81 34 34 34 34
 10 10 10 10 10 10 10 112 112 112 112 112 112 183 183 183 183 192 192 192
 192 81 81 81 81 34 34 34 34 10 10 10 10 10 10 10 10 112 112 112
 112 112 112 62 62 62 192 192 192 192 81 81 81 81 34 34 34 34 10 10
 10 10 10 10 10 112 112 112 112 112 112 62 62 62 62 192 192 192 9 9
 9 9 81 34 34 34 34 153 153 153 153 153 153 153 153 112 82 82 82 62
 8 8 8 62 62 192 9 9 9 9 9 9 27 27 27 153 153 153 153 153
 153 153 153 153 82 82 82 82 8 8 8 8 62 62 192 9 9 9 9 9
 9 27 27 27 246 246 153 153 153 153 153 153 147 82 82 82 82 8 8 8
 8 62 62 192 9 9 9 9 9 9 27 27 246 246 246 246 153 153 153 153
 147 147 147 82 82 82 8 8 8 8 62 62 52 52 9 9 9 9 9 27
 27 246 246 246 246 246 153 153 153 147 147 147 147 82 82 8 8 8 8 221
 221 52 52 52 52 9 9 9 27 27 246 246 246 246 246 246 86 147 147 147
 147 135 135 135 171 171 171 171 168 168 52 52 52 52 198 198 198 198 134 134
 134 246 246 246 246 86 86 147 147 147 135 135 135 171 171 171 171 168 168 168
 52 52 52 198 198 198 198 134 134 134 134 246 202 202 202 86 86 147 135 135
 135 135 171 171 171 171 168 168 168 52 52 52 198 198 198 198 134 134 134 134
 202 202 202 202 86 86 86 135 135 135 171 171 171 171 171 168 168 168 168 52
 52 198 198 198 198 198 134 134 202 202 202 202 36 63 63 63 63 135 101 101
 101 101 101 101 168 168 168 168 168 198 198 47 47 47 47 58 58 36 36 36
 36 36 63 63 63 63 101 101 101 101 101 101 101 101 168 168 168 168 198 47
 47 47 47 47 58 58 36 36 36 36 36 63 63 63 63 101 101 101 101 101
 101 101 101 101 168 168 66 47 47 47 47 47 47 58 58 148 36 36 36 36
 63 63 63 63 129 101 101 101 101 101 101 101 101 66 66 66 66 47 47 47
 47 47 148 148 148 148 36 36 36 63 63 63 63 129 129 129 101 101 101 101
 101 28 66 66 66 66 66 47 47 47 148 148 148 148 148 17 17 17 17 63
 63 129 129 129 129 129 101 101 151 28 28 66 66 66 66 66 66 47 124 124
 124 124 124 124 17 17 17 17 17 129 129 129 129 129 129 205 205 235 28 28
 66 66 66 66 66 115 115 124 124 124 124 124 124 17 17 17 17 149 129 129
 129 129 129 129 205 235 235 235 235 66 66 66 66 103 103 115 124 124 124 124
 124 124 17 149 149 149 149 149 129 129 129 129 129 129 235 235 235 235 235 104
 104 103 103 103 103 124 124 124 124 124 124 124 149 149 149 149 149 129 129 129
 129 129 235 235 235 235 235 235 104 104 103 103 103 103 103 124 124 124 124 124
 149 149 149 149 149 149 129 129 129 129 129 235 235 235 235 235 235 104 104 104
 103 103 103 85 124 124 124 124 125 149 149 149 149 149 149 149 129 129 183 183
 183 183 235 235 235 45 45 142 142 142 227 227 85 85 85 125 125 125 125 149
 149 149 149 149 149 38 38 183 183 183 183 183 183 45 45 45 142 142 142 227
 85 85 85 230 230 125 125 125 125 42 42 42 42 42 38 38 23 183 183 183
 183 183 45 45 45 142 142 142 142 85 85 85 230 230 125 125 125 125 42 42
 42 42 42 112 23 23 183 183 183 183 183 45 45 45 142 142 142 81 85 85
 85 230 230 125 125 125 125 42 42 42 42 42 112 112 112 23 183 183 183 183
 183 45 45 142 142 81 81 81 85 85 85 230 125 125 10 10 10 10 10 42
 112 112 112 112 112 183 183 183 183 183 45 192 81 81 81 81 81 81 34 34
 34 10 10 10 10 10 10 10 10 112 112 112 112 112 183 183 183 183 192 192
 192 192 81 81 81 81 81 34 34 10 10 10 10 10 10 10 10 10 112 112
 112 112 112 112 8 8 192 192 192 192 192 81 81 81 81 81 34 34 10 10
 10 10 10 10 10 10 112 112 112 112 112 112 8 8 8 192 192 192 192 192
 9 9 9 81 27 27 27 27 153 153 153 153 153 153 153 153 112 82 82 82
 8 8 8 8 8 192 192 192 9 9 9 9 9 27 27 27 27 153 153 153
 153 153 153 153 153 82 82 82 82 8 8 8 8 8 192 192 192 9 9 9
 9 9 27 27 27 246 246 153 153 153 153 153 153 147 82 82 82 82 8 8
 8 8 8 192 192 9 9 9 9 9 9 27 27 27 246 246 246 153 153 153
 153 153 147 147 82 82 82 8 8 8 8 8 192 52 52 9 9 9 9 9
 27 27 246 246 246 246 246 153 153 153 147 147 147 147 135 135 8 8 8 8
 221 221 52 52 52 52 9 9 9 27 27 246 246 246 246 246 246 153 153 147
 147 147 135 135 135 135 135 171 171 168 168 52 52 52 52 52 198 198 134 134
 134 134 134 246 246 246 246 86 147 135 135 135 135 135 135 171 171 171 168 168
 168 52 52 52 52 198 198 198 134 134 134 134 202 202 202 202 202 86 135 135
 135 135 135 171 171 171 171 168 168 168 168 52 52 198 198 198 198 134 134 134
 134 202 202 202 202 202 86 135 135 135 135 135 171 171 171 171 168 168 168 168
 52 52 198 198 198 198 134 134 134 134 202 202 202 36 36 63 135 135 135 135
 101 101 101 101 101 168 168 168 168 168 198 47 47 47 47 47 47 134 36 36
 36 36 36 36 63 63 135 135 101 101 101 101 101 101 101 168 168 168 168 47
 47 47 47 47 47 47 134 36 36 36 36 36 36 63 63 63 101 101 101 101
 101 101 101 101 101 168 168 66 47 47 47 47 47 47 47 47 36 36 36 36
 36 36 63 63 63 129 101 101 101 101 101 101 101 28 28 66 66 66 47 47
 47 47 47 47 148 36 36 36 36 36 36 63 63 129 129 129 129 101 101 101
 101 28 28 28 66 66 66 66 47 47 47 47 148 148 148 17 17 17 17 17
 17 17 129 129 129 129 129 101 101 28 28 28 28 66 66 66 66 66 47 47
 124 124 124 124 17 17 17 17 17 17 129 129 129 129 129 129 129 28 28 28
 28 28 66 66 66 66 66 99 99 99 124 124 124 17 17 17 17 17 149 129
 129 129 129 129 129 129 235 235 235 28 28 66 66 66 66 103 99 99 99 99
 124 124 124 17 17 17 149 149 149 129 129 129 129 129 129 235 235 235 235 104
 104 104 104 103 103 99 99 99 99 99 124 99 17 149 149 149 149 149 129 129
 129 129 129 129 235 235 235 235 104 104 104 104 104 103 99 99 99 99 99 99
 99 149 149 149 149 149 149 129 129 129 129 129 235 235 235 235 235 104 104 104
 104 104 103 103 99 99 99 99 99 125 149 149 149 149 149 149 149 38 38 38
 183 183 183 183 235 235 45 104 104 104 104 227 227 85 99 99 99 125 125 125
 149 149 149 149 149 38 38 38 183 183 183 183 183 183 45 45 45 45 142 142
 227 85 85 85 230 230 125 125 125 125 42 42 42 42 38 38 38 23 183 183
 183 183 183 45 45 45 45 142 142 142 85 85 85 230 230 125 125 125 125 42
 42 42 42 42 23 23 23 23 183 183 183 183 45 45 45 45 142 81 81 81
 85 85 230 230 125 125 125 125 42 42 42 42 38 112 112 23 23 23 183 183
 183 183 45 45 45 81 81 81 81 81 85 230 230 125 125 10 10 10 10 42
 42 112 112 112 112 23 23 183 183 183 183 172 172 81 81 81 81 81 81 81
 34 10 10 10 10 10 10 10 10 112 112 112 112 112 112 23 183 183 192 192
 192 192 192 81 81 81 81 81 81 34 10 10 10 10 10 10 10 10 10 112
 112 112 112 112 112 8 192 192 192 192 192 192 81 81 81 81 81 27 27 27
 10 10 10 10 10 10 10 112 112 112 112 112 112 8 8 8 192 192 192 192
 192 9 9 9 27 27 27 27 27 153 153 153 153 153 153 153 153 112 112 82
 112 8 8 8 8 192 192 192 192 192 9 9 9 27 27 27 27 27 153 153
 153 153 153 153 153 153 82 82 82 8 8 8 8 8 8 192 192 192 9 9
 9 9 27 27 27 27 27 246 153 153 153 153 153 153 153 82 82 82 82 8
 8 8 8 8 192 192 192 9 9 9 9 27 27 27 27 246 246 246 153 153
 153 153 153 153 147 135 135 135 187 8 8 8 8 197 52 52 9 9 9 9
 27 27 27 27 246 246 246 246 153 153 153 153 147 147 135 135 135 135 8 8
 8 197 197 52 52 52 52 9 9 27 27 27 27 246 246 246 246 246 153 153
 153 147 147 135 135 135 135 135 171 197 197 197 197 197 52 52 52 198 198 134
 134 134 134 134 246 202 202 202 202 135 135 135 135 135 135 135 171 171 171 197
 197 197 197 52 52 52 198 198 134 134 134 134 134 202 202 202 202 202 202 135
 135 135 135 135 135 171 171 171 168 168 168 197 52 52 198 198 198 198 134 134
 134 134 202 202 202 202 202 202 135 135 135 135 135 171 171 171 171 168 168 168
 168 52 52 198 198 198 198 134 134 134 134 202 202 202 36 36 36 135 135 135
 135 101 101 101 101 101 168 168 168 168 168 198 47 47 47 47 47 134 134 134
 36 36 36 36 36 36 36 135 241 241 101 101 101 101 101 101 168 168 168 168
 47 47 47 47 47 47 47 134 36 36 36 36 36 36 36 36 241 241 241 101
 101 101 101 101 101 28 28 28 93 93 47 47 47 47 47 47 36 36 36 36
 36 36 36 36 36 241 241 241 101 101 101 101 101 28 28 28 28 93 93 93
 47 47 47 47 99 99 36 36 36 36 36 36 36 36 241 129 129 101 101 101
 101 28 28 28 28 93 93 93 93 93 47 47 99 99 99 17 17 17 17 17
 17 17 17 129 129 129 129 129 101 28 28 28 28 28 93 93 93 93 93 93
 99 99 99 99 99 17 17 17 17 17 17 17 129 129 129 129 129 129 28 28
 28 28 28 28 93 93 93 93 99 99 99 99 99 99 17 17 17 17 17 17
 129 129 129 129 129 129 129 28 28 28 28 28 28 104 104 104 104 99 99 99
 99 99 99 99 17 17 17 17 149 149 129 4 4 129 129 129 28 28 28 28
 28 104 104 104 104 104 99 99 99 99 99 99 99 17 17 149 149 149 149 129
 4 4 129 129 1 235 235 235 235 104 104 104 104 104 104 99 99 99 99 99
 99 99 99 149 149 149 149 149 3 38 38 38 43 183 235 235 235 235 104 104
 104 104 104 104 99 99 99 99 99 99 99 99 149 149 149 149 3 3 38 38
 38 43 183 183 183 235 235 104 104 104 104 104 104 139 99 99 99 99 99 125
 125 149 149 149 149 3 38 38 38 38 43 183 183 183 183 45 45 45 104 104
 104 139 139 85 85 230 230 125 125 125 125 42 42 42 38 38 38 38 38 43
 183 183 183 183 45 45 45 45 142 142 81 139 85 85 230 230 125 125 125 125
 42 42 42 42 38 38 38 23 23 23 183 183 183 183 45 45 45 142 81 81
 81 6 85 230 230 125 125 125 64 42 42 42 38 38 38 23 23 23 23 183
 183 183 172 172 172 172 81 81 81 81 6 6 230 230 125 125 10 10 10 10
 42 121 121 112 112 23 23 23 183 183 172 172 172 172 172 81 81 81 81 6
 6 6 10 10 10 10 10 10 10 10 121 121 112 112 112 23 23 183 172 172
 172 172 172 172 81 81 81 81 6 6 6 10 10 10 10 10 10 10 10 121
 121 112 112 112 112 23 8 192 192 192 192 192 192 192 81 81 6 6 27 27
 27 10 10 10 10 10 10 10 121 121 112 112 112 112 8 8 192 192 192 192
 192 192 9 9 9 27 27 27 27 27 19 153 153 153 153 153 153 121 121 112
 112 112 8 8 8 8 192 192 192 192 192 9 9 27 27 27 27 27 27 19
 153 153 153 153 153 153 153 121 82 82 8 8 8 8 8 192 192 192 192 192
 9 9 27 27 27 27 27 27 19 153 153 153 153 153 153 153 212 135 187 187
 187 8 8 8 8 192 192 192 192 9 9 27 27 27 27 27 27 246 246 153
 153 153 153 153 153 212 135 187 187 187 33 33 33 33 197 197 197 52 9 9
 9 27 27 27 27 246 246 246 246 153 153 153 153 147 212 135 135 135 187 33
 33 33 197 197 197 197 52 52 9 9 27 27 27 134 134 246 246 246 246 153
 153 153 147 212 135 135 135 187 187 33 197 197 197 197 197 197 197 197 198 198
 134 134 134 134 134 134 202 202 202 95 135 135 135 135 135 135 135 171 171 197
 197 197 197 197 197 197 197 198 198 134 134 134 134 134 134 202 202 202 202 118
 135 135 135 135 135 135 171 171 171 197 197 197 197 197 197 197 198 198 134 134
 134 134 134 202 202 202 202 91 118 135 135 135 135 135 135 171 171 171 168 197
 197 197 197 197 198 198 198 134 134 134 134 134 202 202 36 36 36 118 118 135
 241 241 241 101 101 101 101 168 168 168 168 197 197 47 47 47 47 78 78 134
 36 36 36 36 36 36 36 118 118 241 241 241 101 101 101 101 101 168 168 168
 197 107 107 107 47 47 78 78 78 36 36 36 36 36 36 36 118 241 241 241
 241 101 101 101 101 101 28 28 28 93 107 107 107 107 47 47 78 78 36 36
 36 36 36 36 36 118 241 241 241 241 101 101 101 28 28 28 28 28 93 93
 107 107 107 47 237 237 48 48 48 48 36 36 36 36 36 241 4 4 4 101
 101 28 28 28 28 28 28 93 93 93 107 107 107 237 99 99 48 48 48 48
 48 48 48 48 4 4 4 4 4 4 28 28 28 28 28 28 93 93 93 93
 117 117 117 99 99 99 48 48 48 48 48 48 4 4 4 4 4 4 4 28
 28 28 28 28 28 93 93 93 93 117 117 117 99 99 99 48 48 48 48 48
 48 4 4 4 4 4 4 4 28 28 28 28 28 28 28 93 93 93 117 117
 117 99 99 99 99 48 48 48 48 3 3 4 4 4 4 4 4 1 28 28
 28 28 104 104 104 104 104 117 117 99 99 99 99 99 48 48 149 3 3 3
 4 4 4 4 4 1 1 1 235 235 104 104 104 104 104 104 99 99 99 99
 99 99 99 99 149 149 3 3 3 3 4 38 4 43 43 1 1 235 104 104
 104 104 104 104 104 139 99 99 99 99 99 99 99 3 3 3 3 3 3 38
 38 38 43 43 43 177 177 177 104 104 104 104 104 139 139 139 99 99 99 99
 99 99 64 3 3 3 3 38 38 38 38 43 43 43 177 177 177 177 104 104
 104 104 139 139 139 203 203 230 125 125 125 64 42 42 141 3 38 38 38 38
 43 43 183 177 177 177 177 45 45 104 104 139 139 139 203 230 230 125 125 64
 64 64 42 42 38 38 38 38 38 43 43 183 183 177 177 172 172 172 172 6
 6 6 6 6 230 230 125 125 64 64 64 42 141 38 38 38 38 23 23 23
 183 183 183 172 172 172 172 172 6 6 6 6 6 6 239 239 64 64 64 64
 64 121 121 121 121 23 23 23 23 23 183 172 172 172 172 172 172 6 6 6
 6 6 6 239 239 10 64 64 64 10 121 121 121 121 121 23 23 23 23 172
 172 172 172 172 172 172 6 6 6 6 6 6 239 68 10 10 10 10 10 121
 121 121 121 121 112 23 23 23 172 172 172 172 172 172 172 6 6 6 6 6
 6 19 19 10 10 10 10 10 121 121 121 121 112 112 23 8 8 192 192 192
 192 192 192 192 6 6 6 27 27 27 19 19 194 194 194 194 194 121 121 121
 121 112 187 8 8 8 8 192 192 192 192 192 192 6 6 27 27 27 27 19
 19 194 194 194 194 194 194 121 121 212 212 187 187 33 33 33 192 192 192 192
 192 192 9 27 27 27 27 27 19 19 194 194 194 194 194 194 121 212 212 187
 187 187 33 33 33 33 192 192 192 192 9 9 27 27 27 27 27 19 19 19
 194 194 194 194 194 212 212 212 187 187 187 33 33 33 33 197 197 197 197 197
 9 27 27 27 27 27 19 19 246 194 194 194 194 194 212 212 212 187 187 187
 33 33 33 197 197 197 197 197 197 197 27 27 27 27 134 134 246 246 246 246
 194 194 194 212 212 212 187 187 187 187 33 33 197 197 197 197 197 49 49 49
 154 154 154 134 134 134 134 202 202 95 95 95 118 135 135 135 135 187 187 33
 197 197 197 197 197 197 49 49 49 154 134 134 134 134 134 134 202 202 91 91
 118 118 118 98 98 98 98 171 171 197 197 197 197 197 197 190 190 190 65 134
 134 134 134 134 202 202 91 91 91 118 118 118 98 98 98 98 171 171 197 197
 197 197 197 190 190 190 65 65 65 78 78 78 78 78 36 36 91 91 118 118
 118 241 241 241 241 101 101 101 197 197 197 197 190 190 107 65 65 65 78 78
 78 78 36 36 36 36 91 118 118 118 241 241 241 241 101 101 101 101 197 197
 197 190 107 107 107 65 65 78 78 78 78 36 36 36 36 36 118 118 241 241
 241 241 241 101 101 101 28 28 28 28 107 107 107 107 107 65 237 78 78 78
 36 36 36 36 36 118 118 241 241 241 241 241 101 101 28 28 28 28 28 28
 107 107 107 107 237 237 237 136 136 48 48 48 48 48 48 241 241 241 241 4
 4 28 28 28 28 28 28 28 28 93 107 107 107 107 237 237 136 136 48 48
 48 48 48 48 48 241 4 4 4 4 4 28 28 28 28 28 28 28 93 93
 107 107 117 117 117 99 136 48 48 48 48 48 48 4 4 4 4 4 4 4
 28 28 28 28 28 28 28 93 93 93 117 117 117 117 99 136 136 48 48 48
 48 48 4 4 4 4 4 4 1 1 28 28 28 28 28 28 130 130 117 117
 117 117 117 99 99 99 48 48 48 48 3 3 4 4 4 4 4 1 1 1
 28 28 28 130 130 130 130 117 117 117 117 99 99 99 99 48 48 3 3 3
 3 3 3 4 4 1 1 1 1 1 28 130 130 130 130 130 139 139 99 99
 99 99 99 99 99 3 3 3 3 3 3 3 38 38 1 1 1 1 1 130
 130 130 130 130 130 139 139 139 203 99 99 99 99 3 3 3 3 3 3 3
 38 38 38 43 43 1 1 177 177 177 130 130 130 139 139 139 139 203 203 203
 99 92 92 3 3 3 3 3 3 38 38 38 43 43 43 177 177 177 177 177
 130 130 139 139 139 139 203 203 203 239 92 92 92 92 141 141 141 38 38 38
 38 43 43 43 177 177 177 177 177 177 130 139 139 139 139 203 203 239 239 92
 92 92 92 92 141 141 38 38 38 38 43 43 43 177 177 177 172 172 172 172
 51 51 51 51 51 239 239 239 92 64 64 64 92 141 141 38 38 38 38 43
 43 43 172 172 172 172 172 172 172 51 51 6 6 6 239 239 239 92 64 64
 64 92 121 121 121 121 121 23 23 23 23 172 172 172 172 172 172 172 6 6
 6 6 6 239 239 239 239 64 64 64 92 121 121 121 121 121 23 23 23 172
 172 172 172 172 172 172 172 6 6 6 6 6 239 239 68 68 92 92 92 121
 121 121 121 121 121 121 23 23 172 172 172 172 172 172 172 172 6 6 6 6
 6 6 68 68 68 68 92 92 121 121 121 121 121 121 121 187 76 76 172 172
 172 172 172 172 172 6 6 6 6 27 19 19 19 194 194 194 194 194 121 121
 121 121 212 187 187 33 76 76 76 192 192 192 192 192 6 6 27 27 27 19
 19 19 194 194 194 194 194 121 121 121 212 212 187 187 33 33 76 76 192 192
 192 192 192 178 27 27 27 27 19 19 19 194 194 194 194 194 194 212 212 212
 212 187 187 33 33 33 33 192 192 192 192 178 178 27 27 27 27 19 19 19
 194 194 194 194 194 194 212 212 212 212 187 187 33 33 33 33 197 197 197 197
 197 178 27 27 30 30 19 19 19 194 194 194 194 194 194 212 212 212 187 187
 187 187 33 33 197 197 197 197 197 197 178 30 30 30 30 30 30 19 246 194
 194 194 194 194 212 212 212 187 187 187 187 33 26 197 197 197 197 49 49 49
 49 154 154 154 30 134 134 134 95 95 95 95 95 95 118 98 98 187 187 187
 26 26 197 197 197 197 49 49 49 49 154 154 154 134 134 134 134 95 95 95
 95 118 118 118 98 98 98 98 187 26 26 197 197 197 197 49 49 49 49 65
 65 78 78 78 78 78 91 91 91 91 118 118 118 98 98 98 98 98 26 26
 197 197 197 190 190 190 190 65 65 65 78 78 78 78 78 78 91 91 91 118
 118 118 241 241 241 241 241 26 26 197 197 197 190 190 190 107 65 65 65 78
 78 78 78 78 36 91 91 91 118 118 118 241 241 241 241 241 111 111 111 111
 197 190 190 107 107 107 65 65 78 78 78 78 78 36 91 91 91 118 118 241
 241 241 241 241 241 111 111 111 111 28 28 107 107 107 107 107 65 237 237 78
 78 78 36 36 36 91 118 241 241 241 241 241 241 241 111 111 111 28 28 28
 127 107 107 107 107 237 237 237 136 136 136 48 48 48 48 48 241 241 241 241
 241 241 111 111 28 28 28 28 127 127 127 107 107 107 237 237 237 136 136 136
 48 48 48 48 48 241 241 4 4 4 4 4 28 28 28 28 28 28 127 127
 127 127 107 50 50 50 136 136 136 48 48 48 48 48 3 4 4 4 4 4
 4 1 28 28 28 28 28 28 127 127 127 50 50 50 50 136 136 136 136 48
 48 48 3 3 4 4 4 4 4 1 1 1 28 28 28 130 130 130 130 130
 50 50 50 50 99 136 136 136 48 48 3 3 3 3 4 4 4 1 1 1
 1 1 28 130 130 130 130 130 130 50 50 50 50 99 99 99 136 48 3 3
 3 3 3 3 3 4 1 1 1 1 1 130 130 130 130 130 130 139 139 139
 50 99 99 99 99 136 3 3 3 3 3 3 3 3 4 1 1 1 1 1
 130 130 130 130 130 130 139 139 139 203 203 99 99 99 3 3 3 3 3 3
 3 38 38 38 43 1 1 1 1 130 130 130 130 130 139 139 139 139 203 203
 203 203 92 92 92 3 3 3 3 3 38 38 38 43 43 43 177 177 177 177
 130 130 130 139 139 139 139 203 203 203 239 92 92 92 92 141 141 141 141 38
 38 38 43 43 43 177 177 177 177 177 130 130 139 139 139 139 203 203 239 239
 92 92 92 92 141 141 141 141 38 38 38 43 43 43 177 177 177 172 172 172
 51 51 51 51 51 51 239 239 239 92 92 92 92 92 141 141 141 38 38 38
 43 43 43 177 172 172 172 172 172 172 51 51 51 51 51 239 239 239 239 92
 92 92 92 141 141 121 121 121 23 23 23 23 172 172 172 172 172 172 172 51
 51 6 6 51 239 239 239 239 92 92 92 92 121 121 121 121 121 121 23 23
 172 172 172 172 172 172 172 172 6 6 6 6 6 239 239 68 68 68 92 92
 92 121 121 121 121 121 121 121 76 76 172 172 172 172 172 172 172 6 6 6
 6 6 239 68 68 68 68 92 92 92 121 121 121 121 121 121 76 76 76 76
 76 172 172 172 172 172 6 6 6 6 6 19 19 68 68 194 138 138 138 121
 121 121 121 212 212 76 76 76 76 76 76 172 172 172 172 6 6 27 27 19
 19 19 19 194 194 138 138 138 121 121 121 212 212 212 187 76 76 76 76 76
 192 192 178 178 178 178 30 30 19 19 19 19 194 194 194 138 138 138 212 212
 212 212 212 187 187 33 33 76 76 192 192 178 178 178 178 30 30 30 30 19
 19 194 194 194 194 194 194 212 212 212 212 187 187 187 33 33 33 197 197 197
 49 178 178 178 30 30 30 30 19 19 194 194 194 194 194 194 212 212 212 212
 187 187 187 33 33 197 197 197 197 49 49 178 154 154 154 154 30 30 19 194
 194 194 194 95 95 212 212 212 212 187 187 187 26 26 26 26 197 49 49 49
 49 178 154 154 154 30 30 134 134 95 95 95 95 95 95 212 98 98 98 187
 26 26 26 26 26 197 49 49 49 49 178 154 154 154 30 78 78 78 95 95
 95 95 95 118 118 98 98 98 98 26 26 26 26 26 197 49 49 49 49 49
 65 78 78 78 78 78 78 91 91 91 91 118 118 118 98 98 98 98 98 26
 26 26 26 197 190 190 190 190 65 65 65 78 78 78 78 78 78 91 91 91
 118 118 118 241 241 241 241 241 26 26 26 26 190 190 190 190 107 65 65 65
 78 78 78 78 78 78 91 91 91 118 118 118 241 241 241 241 241 111 111 111
 111 111 190 190 107 107 65 65 65 78 78 78 78 78 78 91 91 91 118 118
 241 241 241 241 241 241 111 111 111 111 111 190 190 107 107 107 65 65 237 237
 78 78 78 78 48 217 217 118 241 241 241 241 241 241 111 111 111 111 111 111
 127 127 107 107 107 107 237 237 237 237 136 136 136 48 217 217 217 241 241 241
 241 241 241 111 111 111 111 111 127 127 127 127 107 107 107 237 237 237 136 136
 136 136 48 48 48 48 241 241 4 4 4 4 111 111 111 111 111 127 127 127
 127 127 127 50 50 50 50 136 136 136 136 48 48 48 48 3 3 4 4 4
 4 1 1 207 207 207 127 127 127 127 127 127 50 50 50 50 136 136 136 136
 48 48 48 3 3 3 3 4 4 1 1 1 1 207 207 130 130 130 130 130
 130 50 50 50 50 50 136 136 136 136 48 3 3 3 3 3 3 4 1 1
 1 1 1 207 130 130 130 130 130 130 50 50 50 50 50 99 136 136 136 3
 3 3 3 3 3 3 1 1 1 1 1 1 130 130 130 130 130 130 139 139
 139 50 50 50 99 136 136 3 3 3 3 3 3 3 3 1 1 1 1 1
 1 130 130 130 130 130 130 139 139 139 203 203 203 203 209 209 3 3 3 3
 3 3 3 38 38 1 1 1 1 1 130 130 130 130 130 139 139 139 139 203
 203 203 203 209 209 209 209 3 3 3 3 141 38 38 43 43 1 177 177 177
 130 130 130 130 139 139 139 139 203 203 203 209 209 209 209 209 141 141 141 141
 141 38 38 43 43 43 177 177 177 177 130 130 130 139 139 139 139 203 203 239
 239 92 92 92 92 141 141 141 141 38 38 38 43 43 43 177 177 177 172 172
 172 51 51 51 51 51 51 239 239 239 239 92 92 92 92 141 141 141 38 38
 38 43 43 43 177 172 172 172 172 172 51 51 51 51 51 51 239 239 239 239
 92 92 92 92 141 141 141 121 121 38 23 23 172 172 172 172 172 172 172 172
 51 51 51 51 51 239 239 239 239 92 92 92 92 121 121 121 121 121 121 121
 76 172 172 172 172 172 172 172 172 51 51 6 51 239 239 239 68 68 68 92
 92 92 121 121 121 121 121 121 76 76 76 172 172 172 172 172 172 172 6 6
 6 6 6 239 239 68 68 68 92 92 92 121 121 121 121 121 121 76 76 76
 76 76 172 172 172 172 172 6 6 6 6 6 239 239 68 68 138 138 138 138
 121 121 121 121 212 212 76 76 76 76 76 76 172 172 172 178 178 178 30 30
 19 19 19 19 138 138 138 138 138 138 121 121 212 212 212 212 76 76 76 76
 76 76 178 178 178 178 178 30 30 154 154 19 19 138 138 138 138 138 138 212
 212 212 212 212 212 187 76 76 76 76 76 178 178 178 178 178 30 30 154 154
 19 19 138 138 138 138 138 138 212 212 212 212 212 187 187 33 33 33 26 197
 178 178 178 178 178 30 30 30 30 30 19 138 138 138 138 138 138 212 212 212
 212 212 187 187 187 26 26 26 197 49 49 178 178 178 154 154 154 30 30 30
 138 138 138 138 95 95 212 212 212 212 212 187 26 26 26 26 26 26 49 49
 49 244 178 178 154 30 30 30 242 242 95 95 95 95 95 95 212 98 98 98
 187 26 26 26 26 26 26 49 49 49 49 178 178 154 222 222 78 78 95 95
 95 95 95 95 118 118 98 98 98 98 26 26 26 26 26 26 49 49 49 49
 49 222 222 222 222 78 78 78 95 95 95 95 118 118 118 98 98 98 98 26
 26 26 26 26 26 190 190 190 190 65 65 222 222 78 78 78 78 78 91 91
 91 118 118 118 241 241 241 241 241 26 26 26 26 26 190 190 190 190 65 65
 65 222 78 78 78 78 78 91 91 91 118 118 118 241 241 241 241 241 111 111
 111 111 111 190 190 107 107 65 65 65 78 78 78 78 78 78 91 91 91 118
 118 241 241 241 241 241 241 111 111 111 111 111 111 190 107 107 107 65 65 237
 78 78 78 78 217 217 217 217 217 241 241 241 241 241 241 111 111 111 111 111
 111 127 127 127 107 107 107 237 237 237 237 136 136 136 217 217 217 217 217 241
 241 241 241 241 111 111 111 111 111 127 127 127 127 127 107 107 237 237 237 136
 136 136 136 217 217 217 217 234 241 234 4 4 241 111 111 111 111 111 127 127
 127 127 127 127 127 50 50 50 136 136 136 136 136 217 217 217 234 234 4 4
 4 4 207 207 207 207 207 127 127 127 127 127 127 50 50 50 50 136 136 136
 136 136 48 3 3 3 3 3 3 4 1 1 1 207 207 207 207 130 130 130
 130 127 50 50 50 50 165 136 136 136 136 3 3 3 3 3 3 3 4 1
 1 1 1 207 207 130 130 130 130 130 130 50 50 50 50 50 136 136 136 3
 3 3 3 3 3 3 3 1 1 1 1 1 1 207 130 130 130 130 130 139
 139 139 50 50 165 165 136 136 3 3 3 3 3 3 3 3 3 1 1 1
 1 1 130 130 130 130 130 130 139 139 139 203 203 203 209 209 209 209 3 3
 3 3 3 3 3 38 1 1 1 1 1 1 130 130 130 130 139 139 139 139
 203 203 203 209 209 209 209 209 3 3 3 3 141 38 38 43 43 1 1 177
 177 130 130 130 130 139 139 139 139 203 203 203 209 209 209 209 209 209 141 141
 141 141 38 38 43 43 204 177 177 177 177 39 130 39 139 139 139 139 203 239
 239 239 209 209 209 209 209 141 141 141 141 38 38 43 43 84 84 177 177 172
 39 39 51 51 51 51 51 51 239 239 239 239 92 92 92 92 141 141 141 38
 38 38 43 84 84 84 172 172 172 172 39 51 51 51 51 51 51 239 239 239
 239 92 92 92 92 141 141 141 121 57 38 84 84 84 84 172 172 172 172 172
 51 51 51 51 51 51 239 239 239 239 92 92 92 92 92 121 121 121 121 121
 84 84 84 172 172 172 172 172 172 172 51 51 51 51 239 239 239 239 239 239
 92 92 92 92 121 121 121 121 121 89 89 76 76 172 172 172 172 172 172 6
 6 6 6 239 239 239 239 239 239 92 92 92 121 121 121 121 121 89 89 89
 76 76 76 76 172 172 172 94 94 94 94 94 94 239 239 239 239 138 138 138
 138 121 121 121 212 212 89 89 89 76 76 76 76 76 172 178 178 178 178 178
 30 154 19 19 243 138 138 138 138 138 138 121 121 212 212 212 89 89 89 76
 76 76 76 178 178 178 178 178 178 30 154 154 154 243 243 138 138 138 138 138
 195 212 212 212 212 212 89 89 76 76 76 76 178 178 178 178 178 178 30 154
 154 154 243 243 138 138 138 138 138 212 212 212 212 212 212 89 89 89 26 26
 26 178 178 178 178 178 178 30 30 30 30 243 243 138 138 138 138 195 212 212
 212 212 212 212 187 26 26 26 26 26 49 244 244 178 178 178 30 30 30 30
 30 243 138 138 138 95 95 212 212 212 212 212 187 26 26 26 26 26 26 26
 49 244 178 178 178 154 242 242 242 242 242 95 95 95 95 95 95 212 98 98
 98 26 26 26 26 26 26 26 26 49 49 178 178 178 222 222 222 222 242 223
 223 95 95 95 95 118 118 98 98 98 98 26 26 26 26 26 26 26 49 49
 49 229 222 222 222 222 222 222 223 223 223 95 95 118 118 118 98 98 98 98
 26 26 26 26 26 26 190 190 190 190 222 222 222 222 222 78 78 223 223 223
 223 91 118 118 118 241 241 241 241 241 26 26 26 26 26 190 190 190 190 65
 65 222 222 222 78 78 78 223 223 223 91 118 118 118 241 241 241 241 241 111
 111 111 111 111 190 190 107 107 65 65 65 222 78 78 78 78 223 217 217 217
 217 118 241 241 241 241 241 111 111 111 111 111 111 111 111 107 107 132 65 65
 237 78 78 78 136 217 217 217 217 217 217 241 241 241 241 241 111 111 111 111
 111 111 127 127 127 132 132 132 132 237 237 78 136 136 136 217 217 217 217 217
 241 234 241 241 111 111 111 111 111 111 127 127 127 127 127 132 132 132 237 237
 136 136 136 136 217 217 217 217 234 234 234 234 241 111 111 111 111 111 111 127
 127 127 127 127 127 132 132 50 165 165 136 136 136 217 217 217 234 234 234 234
 234 199 199 199 199 207 207 207 127 127 127 127 127 127 132 50 50 165 165 165
 136 136 136 217 234 234 234 234 3 3 3 199 199 199 207 207 207 207 127 127
 127 127 127 50 50 50 165 165 165 157 157 157 3 3 3 3 3 3 3 3
 175 175 175 207 207 207 207 130 130 130 130 218 50 50 50 165 165 165 157 157
 157 3 3 3 3 3 3 3 175 175 175 175 175 207 207 130 130 130 130 130
 139 139 139 50 165 165 165 157 157 3 3 3 3 3 3 3 3 175 175 175
 175 1 1 207 130 130 130 130 130 139 139 139 203 203 165 165 209 209 209 3
 3 3 3 3 3 3 175 175 175 175 1 1 1 130 130 130 130 130 139 139
 139 203 59 59 150 209 209 209 209 209 3 3 3 141 38 38 204 204 204 204
 204 177 39 39 39 39 39 139 139 139 59 59 150 150 209 209 209 209 209 141
 141 141 141 38 38 204 204 204 204 204 204 39 39 39 39 39 139 139 139 59
 239 239 150 209 209 209 209 209 141 141 141 141 57 57 84 84 84 84 84 167
 39 39 39 39 39 51 51 51 51 239 239 239 239 209 209 209 209 141 141 141
 57 57 57 84 84 84 84 167 167 167 167 39 39 39 51 51 51 239 239 239
 239 239 92 92 92 92 141 141 141 57 57 57 84 84 84 84 167 167 167 167
 167 167 51 51 51 51 239 239 239 239 239 239 92 92 92 92 121 121 121 57