# vtk DataFile Version 2.0
Data set from ImportExport Version 6.5.171.b0b162591
ASCII

DATASET RECTILINEAR_GRID
DIMENSIONS 30 30 30
X_COORDINATES 30 float
-1.250000 1.250000 3.750000 6.250000 8.750000 11.250000 13.750000 16.250000 18.750000 21.250000 23.750000 26.250000 28.750000 31.250000 33.750000 36.250000 38.750000 41.250000 43.750000 46.250000 48.750000 
51.250000 53.750000 56.250000 58.750000 61.250000 63.750000 66.250000 68.750000 71.250000 
Y_COORDINATES 30 float
-1.250000 1.250000 3.750000 6.250000 8.750000 11.250000 13.750000 16.250000 18.750000 21.250000 23.750000 26.250000 28.750000 31.250000 33.750000 36.250000 38.750000 41.250000 43.750000 46.250000 48.750000 
51.250000 53.750000 56.250000 58.750000 61.250000 63.750000 66.250000 68.750000 71.250000 
Z_COORDINATES 30 float
-1.250000 1.250000 3.750000 6.250000 8.750000 11.250000 13.750000 16.250000 18.750000 21.250000 23.750000 26.250000 28.750000 31.250000 33.750000 36.250000 38.750000 41.250000 43.750000 46.250000 48.750000 
51.250000 53.750000 56.250000 58.750000 61.250000 63.750000 66.250000 68.750000 71.250000 
CELL_DATA 24389
SCALARS FeatureIds int 1
LOOKUP_TABLE default
 175 175 175 217 217 217 217 217 217 217 123 226 226 226 226 226 34 34 34 34
 34 34 34 194 194 194 194 194 194 175 175 175 217 217 217 217 217 217 217 123
 133 133 133 133 34 34 34 34 34 22 22 22 26 26 194 194 194 175 175 175
 175 217 217 217 217 217 217 217 123 133 133 133 133 34 34 34 34 22 22 22
 22 26 26 26 194 194 175 175 175 175 217 217 217 217 217 217 123 123 133 133
 133 133 133 34 34 22 22 22 22 83 26 26 26 26 26 175 175 175 238 238
 217 217 217 217 217 123 123 133 133 133 133 38 38 38 22 22 22 22 83 83
 83 26 26 26 175 175 238 238 238 238 204 204 204 204 204 123 133 133 133 133
 38 38 38 38 20 20 83 83 83 83 83 26 26 175 238 238 238 238 238 204
 204 204 204 204 204 94 164 164 164 38 38 38 20 20 20 70 83 83 83 83
 83 83 83 179 238 238 238 238 99 99 99 99 99 94 94 164 164 164 164 38
 20 20 20 20 70 70 70 83 83 83 83 83 179 238 238 238 238 99 99 99
 99 99 94 94 94 164 164 164 164 20 20 20 20 70 70 70 70 70 83 83
 179 158 158 158 238 238 99 99 99 99 99 94 94 94 164 164 164 164 20 20
 20 20 70 70 72 70 70 83 83 179 158 158 158 158 99 99 99 99 99 99
 94 94 94 164 164 164 164 20 20 20 20 208 72 72 72 72 72 72 179 158
 158 158 158 99 99 99 99 99 99 94 94 164 164 164 164 164 207 207 207 207
 208 72 72 72 72 72 72 179 29 29 29 29 104 99 99 223 223 223 223 94
 164 164 164 164 207 207 207 207 207 207 72 72 72 72 72 72 179 29 29 29
 29 29 71 71 223 223 223 223 223 223 157 157 157 157 207 207 207 207 207 72
 72 72 72 35 35 35 29 29 29 29 71 71 71 71 223 223 223 223 223 157
 157 157 157 207 207 207 207 207 207 72 35 35 35 35 35 29 29 29 29 71
 71 71 71 223 223 223 223 223 157 157 157 157 157 207 207 207 207 35 35 35
 35 35 35 35 29 39 39 39 71 71 71 71 223 223 223 223 223 157 157 157
 157 157 207 207 207 207 35 35 35 35 35 35 23 39 39 39 39 39 71 71
 71 223 223 223 223 223 157 157 157 157 157 157 7 201 35 35 35 35 35 35
 35 23 39 39 39 39 39 39 71 71 223 223 223 223 223 157 157 157 157 157
 7 201 201 201 201 35 35 35 35 35 23 39 39 39 39 39 39 39 71 223
 223 223 223 223 157 157 157 157 157 7 201 201 201 201 35 35 35 35 35 23
 39 39 39 39 39 39 39 129 129 129 129 129 129 14 14 84 84 84 84 201
 201 201 201 35 35 35 35 35 23 39 39 134 134 134 39 39 129 129 129 129
 129 129 14 14 84 84 84 84 84 201 201 201 159 159 159 159 35 23 106 106
 134 134 134 39 129 129 129 129 129 129 129 14 84 84 84 84 84 84 1 159
 159 159 159 159 159 159 106 106 106 106 106 106 106 129 129 129 129 129 129 129
 14 84 84 84 84 84 84 1 1 159 159 159 159 193 119 106 106 106 106 106
 106 106 129 129 129 129 129 129 129 226 226 226 84 84 84 1 1 1 1 211
 159 193 193 119 106 106 106 106 106 106 203 203 129 129 129 129 129 226 226 226
 226 226 226 114 1 1 1 1 211 193 193 193 119 106 106 106 106 106 106 203
 203 203 203 129 129 226 226 226 226 226 226 114 114 1 1 1 1 211 193 193
 193 119 106 106 106 106 106 106 203 203 203 203 203 129 226 226 226 226 226 226
 114 114 114 1 1 1 211 193 193 193 194 106 194 106 106 106 203 203 203 203
 203 203 203 226 226 226 226 226 226 114 114 34 1 1 1 211 193 194 194 194
 194 175 194 194 194 217 217 217 217 217 217 217 226 226 226 226 226 34 34 34
 34 34 34 34 194 194 194 194 194 194 175 175 175 175 217 217 217 217 217 217
 217 133 133 133 133 34 34 34 34 34 22 22 22 26 26 194 194 194 175 175
 175 175 175 217 217 217 217 217 217 123 133 133 133 133 34 34 34 34 22 22
 22 22 26 26 26 194 194 175 175 175 175 238 217 217 217 82 217 217 123 133
 133 133 133 133 34 34 22 22 22 22 83 26 26 26 26 194 175 175 238 238
 238 238 217 217 217 217 217 123 133 133 133 133 133 38 22 22 22 22 22 83
 83 26 26 26 26 175 238 238 238 238 238 204 204 204 204 204 204 133 133 133
 133 221 221 38 20 20 20 83 83 83 83 83 26 26 175 238 238 238 238 238
 204 204 204 204 204 204 133 133 221 221 221 221 20 20 20 20 20 83 83 83
 83 83 83 179 179 238 238 238 238 238 99 99 99 99 94 94 94 221 221 221
 221 20 20 20 20 20 83 83 83 83 83 83 179 179 179 238 238 238 99 99
 99 99 99 94 94 94 164 221 221 221 20 20 20 20 20 70 83 83 83 83
 83 179 179 179 179 238 238 99 99 99 99 99 94 94 94 94 164 221 221 20
 20 20 20 20 70 72 70 83 83 179 179 179 179 179 179 238 99 99 99 99
 99 94 94 94 94 164 164 221 20 20 20 20 208 72 72 72 72 91 179 179
 179 179 179 104 104 99 99 99 99 99 94 94 94 164 164 164 207 207 207 207
 207 207 72 72 72 72 72 179 179 29 29 104 104 104 104 99 99 99 223 94
 94 94 164 164 164 207 207 207 207 207 207 72 72 72 72 35 35 179 29 104
 104 104 104 104 71 223 223 223 223 223 2 2 2 157 157 207 207 207 207 207
 207 72 72 35 35 35 35 29 29 104 104 104 188 188 223 223 223 223 223 2
 2 2 157 157 207 207 207 207 207 207 35 35 35 35 35 35 29 29 104 104
 104 188 188 188 223 223 223 223 2 2 2 157 157 7 207 207 207 207 35 35
 35 35 35 35 35 29 39 39 104 188 188 188 188 223 223 223 223 2 2 2
 157 7 7 7 7 81 81 35 35 35 35 35 35 35 39 39 39 224 39 188
 188 188 223 223 223 223 2 2 157 157 7 7 7 7 81 81 35 35 35 35
 35 35 35 224 224 224 224 224 224 188 188 223 223 223 223 151 2 157 7 7
 7 7 81 81 201 201 35 35 35 35 35 35 224 224 224 224 224 224 224 188
 223 223 223 223 151 14 14 7 7 7 7 81 201 201 201 35 35 35 35 35
 35 224 224 224 224 224 224 224 129 129 129 129 150 14 14 14 14 14 7 201
 201 201 201 201 81 35 35 35 35 35 45 45 45 224 134 224 224 129 129 129
 129 129 14 14 14 14 14 234 234 201 201 201 81 159 159 159 35 35 60 45
 45 45 45 134 224 129 129 129 129 129 129 14 14 14 14 14 234 234 216 216
 201 159 159 159 159 159 60 60 45 45 45 45 45 45 129 129 129 129 129 129
 14 14 14 14 14 234 234 216 1 1 159 159 159 159 193 60 60 45 45 45
 45 45 45 129 129 129 129 129 129 14 14 14 14 14 234 234 1 1 1 1
 211 193 193 193 60 60 106 106 106 106 106 203 203 129 129 129 129 129 226 226
 226 226 226 226 114 1 1 1 1 211 193 193 193 60 60 106 106 106 106 106
 203 203 203 203 129 129 226 226 226 226 226 226 114 114 1 1 1 1 211 193
 193 193 60 60 106 106 106 106 240 203 203 203 203 203 226 226 226 226 226 96
 226 114 114 114 1 1 1 211 193 193 193 60 60 194 194 106 106 203 203 203
 203 203 203 226 226 226 226 226 226 226 114 114 114 1 1 1 211 193 194 194
 194 194 175 175 175 167 167 217 217 217 217 217 15 226 226 226 226 226 34 34
 34 34 34 34 155 155 194 194 194 194 175 175 175 175 175 217 217 217 217 217
 217 217 133 133 133 133 34 34 34 34 34 22 22 22 155 155 155 194 194 175
 175 175 175 175 217 217 217 217 217 217 217 133 133 133 133 34 34 34 34 22
 22 22 22 155 155 155 155 194 175 194 175 238 238 217 217 217 217 217 217 217
 133 133 133 133 133 34 34 22 22 22 22 83 155 155 155 155 194 194 194 238
 238 238 238 217 217 217 217 217 217 133 133 133 133 133 34 22 22 22 22 22
 83 83 155 155 155 155 194 238 238 238 238 238 204 204 204 204 204 204 133 133
 133 221 221 221 221 20 20 20 83 83 83 83 83 155 155 155 238 238 238 238
 238 238 204 204 204 204 204 94 221 221 221 221 221 221 20 20 20 20 83 83
 83 83 83 83 179 179 238 238 238 238 238 99 99 99 99 94 94 94 221 221
 221 221 221 20 20 20 20 83 83 83 83 83 83 179 179 179 238 238 238 238
 99 99 99 99 94 94 94 221 221 221 221 221 20 20 20 20 83 83 83 83
 83 179 179 179 179 179 238 238 99 99 99 99 99 94 94 94 94 221 221 221
 221 20 20 20 20 83 83 83 83 83 179 179 179 179 179 179 238 99 99 99
 99 99 94 94 94 94 164 221 221 221 20 20 20 20 72 91 91 91 91 179
 179 179 179 179 104 104 99 99 99 99 99 94 94 94 94 88 88 207 207 207
 207 207 207 207 91 91 91 91 179 179 179 104 104 104 104 104 99 99 99 99
 94 94 94 2 2 2 207 207 207 207 207 207 207 91 91 91 91 91 179 104
 104 104 104 104 104 188 188 188 223 223 2 2 2 2 2 207 207 207 207 207
 207 207 72 72 35 35 35 35 104 104 104 104 104 188 188 188 188 188 223 2
 2 2 2 2 2 207 207 207 207 207 207 35 35 35 35 35 35 104 104 104
 104 104 188 188 188 188 188 223 2 2 2 2 2 7 7 7 207 207 207 35
 35 35 35 35 35 35 104 104 104 104 188 188 188 188 188 188 223 2 2 2
 2 7 7 7 7 7 81 81 35 35 35 35 35 35 35 224 224 224 224 224
 188 188 188 188 188 151 151 2 2 2 7 7 7 7 7 81 81 201 35 35
 35 35 35 35 224 224 224 224 224 224 188 188 188 188 151 151 151 2 7 7
 7 7 7 81 81 81 201 35 35 35 35 35 35 224 224 224 224 224 224 224
 188 188 181 181 151 151 2 7 7 7 7 7 81 81 201 201 81 35 35 35
 35 35 224 224 224 224 224 224 224 224 129 181 150 150 14 14 14 14 7 7
 7 201 201 201 81 81 35 35 35 35 35 45 45 45 224 224 224 224 129 129
 129 150 150 14 14 14 14 14 234 234 201 201 81 81 159 159 159 35 45 45
 45 45 45 45 45 224 224 129 129 129 129 150 14 14 14 14 14 234 234 216
 216 81 159 159 159 159 159 45 45 45 45 45 45 45 45 129 129 129 129 129
 129 14 14 14 14 14 234 234 216 216 1 159 159 159 159 60 60 60 45 45
 45 45 45 45 129 129 129 129 129 129 14 14 14 14 14 234 234 216 1 1
 1 211 163 193 60 60 60 60 45 45 45 45 240 240 129 129 129 129 58 14
 14 14 226 226 234 234 1 1 1 1 211 163 163 60 60 60 60 106 106 106
 240 240 240 203 203 129 58 58 226 226 226 226 226 114 114 1 1 1 1 211
 163 163 60 60 60 60 106 106 240 240 240 240 203 203 203 226 226 226 226 226
 226 226 114 114 114 1 1 1 211 163 163 60 60 60 194 194 194 240 240 240
 240 203 203 15 226 226 226 226 226 226 226 114 114 34 1 1 1 211 163 194
 194 194 194 175 175 167 167 167 167 167 167 217 15 15 15 226 226 226 226 34
 34 34 34 34 34 155 155 155 194 194 194 175 175 175 175 167 167 167 167 217
 217 217 15 15 133 226 226 34 34 34 34 34 22 22 155 155 155 155 155 194
 175 175 175 175 167 167 167 217 217 217 217 217 133 133 133 133 34 34 34 34
 22 22 22 155 155 155 155 155 155 194 194 175 238 238 167 217 217 217 217 217
 217 133 133 133 133 133 34 34 22 22 22 22 155 155 155 155 155 155 194 194
 238 238 238 238 206 217 217 217 217 217 133 133 133 221 221 221 22 22 22 22
 22 83 155 155 155 155 155 194 238 238 238 238 238 238 204 204 204 204 204 108
 133 221 221 221 221 221 20 20 20 83 83 83 83 155 155 155 155 238 238 238
 238 238 238 204 204 204 204 204 221 221 221 221 221 221 221 20 20 20 20 83
 83 83 83 83 155 179 179 238 238 238 238 238 238 99 99 99 94 94 221 221
 221 221 221 221 20 20 20 20 83 83 83 83 83 179 179 179 179 238 238 238
 238 99 99 99 99 94 94 94 221 221 221 221 221 20 20 20 20 83 83 83
 83 83 179 179 179 179 179 238 238 238 99 99 99 99 94 94 94 221 221 221
 221 221 20 20 20 20 91 91 91 91 91 179 179 179 179 179 179 238 99 99
 99 99 99 94 94 94 94 221 221 221 221 20 20 20 50 91 91 91 91 91
 91 179 179 179 179 104 104 99 99 99 99 99 94 88 88 88 88 88 221 207
 207 207 207 50 50 91 91 91 91 91 179 179 104 104 104 104 104 99 99 99
 99 88 88 88 88 88 88 77 207 207 207 207 50 50 91 91 91 91 91 91
 104 104 104 104 104 104 188 188 188 188 88 88 88 88 88 88 77 77 207 207
 207 50 50 68 68 91 91 91 91 104 104 104 104 104 188 188 188 188 188 188
 2 2 2 2 2 77 77 77 207 207 50 68 68 68 68 35 35 35 104 104
 104 104 104 188 188 188 188 188 188 2 2 2 2 2 77 77 77 77 207 68
 68 68 68 35 35 35 35 242 104 104 104 104 188 188 188 188 188 151 151 2
 2 2 7 7 7 7 7 81 81 68 68 35 35 35 35 35 224 224 224 224
 224 188 188 188 188 188 151 151 151 2 2 7 7 7 7 7 81 81 201 35
 35 35 35 35 35 224 224 224 224 224 224 188 188 188 181 151 151 151 2 2
 7 7 7 7 81 81 81 201 201 35 35 35 35 35 224 224 224 224 224 224
 224 188 181 181 181 151 151 181 7 7 7 7 7 81 81 81 81 81 35 35
 35 35 35 224 224 224 224 224 224 224 224 181 181 150 150 150 14 14 14 14
 7 7 201 201 81 81 81 81 35 35 35 45 45 45 45 224 224 224 224 224
 150 150 150 150 150 14 14 14 14 234 234 216 201 81 81 81 81 159 35 45
 45 45 45 45 45 45 224 56 56 129 150 150 150 14 14 14 14 14 234 234
 216 216 81 81 159 159 159 60 45 45 45 45 45 45 45 45 56 56 129 129
 150 14 14 14 14 14 14 234 234 216 216 1 159 159 163 163 60 60 45 45
 45 45 45 45 240 240 56 56 129 129 14 14 14 14 14 14 234 234 216 216
 1 1 163 163 163 60 60 60 60 45 45 45 240 240 240 240 86 86 58 58
 58 14 14 14 14 234 234 216 1 1 1 163 163 163 60 60 60 60 45 45
 240 240 240 240 240 240 58 58 58 58 226 226 226 226 226 114 1 1 1 1
 163 163 163 60 60 60 60 45 240 240 240 240 240 240 240 15 58 58 58 226
 226 226 226 226 114 114 1 1 1 163 163 163 60 60 60 194 194 240 240 240
 240 240 240 240 15 15 15 58 226 226 226 226 226 34 34 1 1 1 163 163
 163 194 194 194 175 175 167 167 167 167 167 167 167 15 15 15 15 15 226 226
 226 34 10 10 10 10 10 155 155 155 155 194 175 175 175 167 167 167 167 167
 167 167 15 15 15 15 15 226 34 34 34 10 10 10 10 10 155 155 155 155
 155 175 175 175 167 167 167 167 167 167 217 217 15 15 133 133 133 34 34 34
 10 10 10 10 10 155 155 155 155 155 194 9 206 206 206 167 167 167 217 217
 217 217 108 108 108 133 133 34 34 10 10 10 10 155 155 155 155 155 155 9
 9 206 206 206 206 206 206 217 126 126 108 108 108 108 221 221 221 221 10 10
 10 10 83 155 155 155 155 155 9 238 238 206 206 206 206 206 126 126 126 108
 108 108 108 221 221 221 221 221 20 20 83 83 155 155 155 155 9 9 238 238
 238 238 206 206 206 126 126 126 108 108 108 221 221 221 221 221 221 20 20 20
 83 83 83 83 155 9 9 238 238 238 238 238 238 238 126 126 126 108 108 108
 221 221 221 221 221 221 20 20 20 118 83 83 83 27 179 179 179 179 238 238
 238 238 238 99 99 99 94 94 94 221 221 221 221 221 221 20 20 20 118 118
 118 91 91 179 179 179 179 179 238 238 238 238 99 99 99 94 94 94 221 221
 221 221 221 221 20 20 50 91 91 91 91 91 91 179 179 179 179 179 238 238
 99 99 99 99 94 94 88 88 88 221 221 221 221 20 50 50 91 91 91 91
 91 91 179 179 179 179 115 115 115 99 99 99 99 88 88 88 88 88 88 88
 77 77 207 50 50 50 91 91 91 91 91 179 179 115 115 115 115 115 115 188
 188 188 88 88 88 88 88 88 77 77 77 207 50 50 50 91 91 91 91 91
 91 115 115 115 115 115 115 188 188 188 188 88 88 88 88 88 88 77 77 77
 77 50 50 50 68 68 91 91 91 91 115 115 115 115 115 115 188 188 188 188
 188 88 88 88 88 77 77 77 77 77 50 50 68 68 68 68 68 91 91 112
 112 112 112 112 188 188 188 188 188 151 2 2 2 2 77 77 77 77 77 77
 68 68 68 68 68 35 35 242 242 112 112 112 112 188 188 188 188 188 151 151
 2 2 2 77 77 77 77 77 81 81 68 68 68 68 35 35 242 242 242 224
 224 224 224 188 188 188 188 151 151 151 2 2 7 7 7 7 7 81 81 201
 68 68 35 35 35 242 224 224 224 224 224 224 224 188 181 181 151 151 151 181
 181 7 7 7 7 81 81 201 201 201 35 35 35 35 242 224 224 224 224 224
 224 224 181 181 181 181 181 181 181 181 7 7 7 7 81 201 201 81 81 81
 35 35 35 156 224 224 224 224 224 224 224 181 181 181 150 150 150 181 14 14
 7 7 7 201 201 81 81 81 81 81 35 156 156 45 45 45 224 224 224 224
 56 150 150 150 150 150 14 14 14 14 234 234 216 201 81 81 81 81 81 60
 45 45 45 45 45 45 45 56 56 56 56 150 150 150 150 14 14 14 14 234
 67 216 216 81 81 81 159 163 60 45 45 45 45 45 45 45 56 56 56 56
 150 150 150 14 14 14 14 14 67 67 216 216 1 81 163 163 163 60 60 45
 45 45 45 45 45 240 240 56 56 56 58 58 58 14 14 14 14 67 67 216
 216 1 1 163 163 163 60 60 60 60 45 45 45 240 240 240 240 86 86 58
 58 58 58 14 14 14 234 67 216 216 1 1 163 163 163 60 60 60 60 45
 45 240 240 240 240 240 240 58 58 58 58 58 58 226 226 226 67 216 1 1
 1 163 163 163 60 60 60 60 45 240 240 240 240 240 240 240 15 15 58 58
 58 226 226 226 226 114 114 1 1 1 163 163 163 60 60 60 194 194 240 240
 240 240 240 240 240 15 15 15 15 58 226 226 226 226 34 10 10 1 1 163
 163 163 60 60 60 175 167 167 167 167 167 167 167 167 15 15 15 15 15 15
 226 226 10 10 10 10 10 10 198 198 198 198 198 198 175 167 167 167 167 167
 167 167 167 15 15 15 15 15 15 34 34 10 10 10 10 10 10 198 198 198
 198 198 198 9 9 167 167 167 167 167 167 167 15 15 15 15 15 15 34 10
 10 10 10 10 10 10 155 155 155 155 9 9 9 9 206 206 206 167 167 167
 126 126 108 108 108 108 108 108 10 10 10 10 10 10 10 155 155 155 9 9
 9 9 206 206 206 206 206 126 126 126 126 108 108 108 108 108 108 221 10 10
 10 10 10 10 155 155 155 9 9 9 9 206 206 206 206 206 126 126 126 126
 108 108 108 108 108 221 221 221 10 10 10 10 118 118 118 9 9 9 9 238
 206 206 206 206 206 126 126 126 126 108 108 108 108 108 221 221 221 221 20 10
 118 118 118 118 27 9 9 9 238 238 238 206 206 206 126 126 126 126 126 108
 108 108 221 221 221 221 221 20 118 118 118 118 118 27 27 27 9 179 238 238
 238 238 238 238 126 126 126 69 69 69 221 221 221 221 221 221 20 118 118 118
 118 118 27 27 90 90 179 179 179 238 238 238 238 99 99 69 69 69 69 221
 221 221 221 221 221 20 50 118 118 118 91 91 91 90 90 179 179 179 179 238
 238 99 99 99 69 69 69 69 88 88 221 221 221 77 50 50 50 152 91 91
 91 91 91 90 179 115 115 115 115 115 115 99 99 69 69 88 88 88 88 88
 88 77 77 50 50 50 152 91 91 91 91 91 91 115 115 115 115 115 115 115
 188 188 88 88 88 88 88 88 88 77 77 77 77 50 50 50 152 91 91 91
 91 91 115 115 115 115 115 115 115 188 188 188 88 88 88 88 88 88 77 77
 77 77 50 50 50 152 152 91 91 91 91 115 115 115 115 115 115 188 188 188
 188 88 88 88 88 88 77 77 77 77 77 50 50 68 68 68 68 91 91 242
 242 242 112 112 112 115 188 188 188 188 151 151 88 88 88 77 77 77 77 77
 77 68 68 68 68 68 68 242 242 242 242 112 112 112 115 188 188 188 188 151
 151 151 2 2 77 77 77 77 77 77 68 68 68 68 68 68 242 242 242 242
 242 112 112 224 188 188 188 181 151 151 151 151 2 149 149 149 149 149 81 201
 201 68 68 68 35 242 242 242 242 242 224 224 224 224 181 181 181 181 151 151
 181 181 149 149 149 149 149 201 201 201 201 35 35 35 242 242 156 156 224 224
 224 224 224 181 181 181 181 181 181 181 181 149 149 149 149 201 201 201 201 81
 81 35 35 156 156 156 156 156 224 224 224 224 181 181 181 150 150 150 181 181
 14 149 149 149 201 201 201 81 81 81 81 156 156 156 156 156 156 156 156 56
 56 56 56 150 150 150 150 150 14 14 67 67 67 201 201 81 81 81 81 81
 156 156 156 156 156 156 156 156 56 56 56 56 150 150 150 150 150 14 14 67
 67 67 67 216 81 81 81 81 163 60 156 156 45 45 45 45 45 56 56 56
 56 56 150 150 150 14 14 14 67 67 67 67 216 1 81 163 163 163 60 60
 60 45 45 45 45 240 56 56 56 56 56 86 58 58 14 14 14 67 67 67
 67 216 1 163 163 163 163 60 60 60 60 45 45 240 240 240 240 240 86 86
 86 58 58 58 58 14 67 67 67 67 216 1 163 163 163 163 60 60 60 60
 45 240 240 240 240 240 240 86 86 86 58 58 58 58 226 226 67 67 67 1
 1 163 163 163 163 60 60 60 60 240 240 240 240 240 240 240 86 86 15 15
 58 58 58 226 226 226 10 10 10 10 163 163 163 163 60 60 60 194 240 240
 240 240 240 240 240 86 86 15 15 15 15 58 226 226 226 10 10 10 10 10
 163 163 198 60 60 60 9 167 167 167 167 167 167 167 86 86 15 15 15 15
 15 15 10 10 10 10 10 10 10 198 198 198 198 198 198 9 167 167 167 167
 167 167 167 86 15 15 15 15 15 15 15 10 10 10 10 10 10 10 198 198
 198 198 198 198 9 9 167 167 167 167 167 167 167 15 15 15 15 15 108 108
 10 10 10 10 10 10 10 198 198 198 198 9 9 9 196 196 196 196 167 167
 167 126 126 108 108 108 108 108 108 10 10 10 10 10 10 10 198 198 9 9
 9 9 9 196 196 196 196 206 126 126 126 126 108 108 108 108 108 108 41 10
 10 10 10 10 145 145 9 9 9 9 9 9 196 196 196 206 206 126 126 126
 126 108 108 108 108 108 108 41 41 41 10 10 10 118 118 118 9 9 9 9
 9 206 206 206 206 206 126 126 126 126 108 108 108 108 108 108 221 41 41 41
 10 118 118 118 118 27 27 9 9 238 206 206 206 206 206 126 126 126 126 108
 108 108 108 108 221 221 221 41 41 118 118 118 118 118 27 27 27 90 90 238
 238 206 206 206 126 126 126 126 69 69 69 108 108 221 221 221 221 118 118 118
 118 118 118 27 27 90 90 90 179 179 238 238 206 126 126 126 69 69 69 69
 69 221 221 221 43 43 43 118 118 118 118 118 27 90 90 90 90 179 179 115
 115 115 126 126 69 69 69 69 69 69 69 88 43 43 43 43 50 152 152 152
 91 91 91 90 90 115 115 115 115 115 115 115 115 69 69 69 69 88 88 88
 88 88 77 43 43 50 152 152 152 91 91 91 91 90 115 115 115 115 115 115
 115 115 107 69 69 88 88 88 88 88 77 77 77 50 50 50 152 152 152 91
 91 91 90 115 115 115 115 115 115 115 107 107 107 88 88 88 88 88 88 77
 77 77 77 50 50 152 152 152 152 91 91 90 115 115 115 115 115 115 188 107
 107 107 107 88 88 88 88 77 77 77 77 77 50 50 152 152 152 152 152 242
 242 242 242 112 112 112 115 188 107 107 107 151 88 88 88 88 77 77 77 77
 77 77 68 68 68 68 68 68 242 242 242 242 242 112 112 115 107 107 107 107
 151 151 151 88 88 77 77 77 77 77 77 68 68 68 68 68 68 242 242 242
 242 242 242 112 210 107 107 181 181 151 151 151 181 181 149 149 149 149 149 81
 68 68 68 68 68 68 242 242 242 242 242 242 210 210 107 181 181 181 181 181
 181 181 181 149 149 149 149 149 201 201 201 201 68 68 35 242 242 156 156 156
 210 210 210 210 181 181 181 181 181 181 181 181 149 149 149 149 149 201 201 201
 81 130 130 156 156 156 156 156 156 156 210 210 56 181 181 181 181 181 181 181
 181 181 149 149 149 201 201 201 201 81 130 130 156 156 156 156 156 156 156 156
 56 56 56 56 181 150 150 150 181 181 67 67 67 67 67 201 81 81 81 81
 156 156 156 156 156 156 156 156 156 56 56 56 56 56 150 150 150 150 14 67
 67 67 67 67 67 81 81 81 160 160 156 156 156 156 156 156 156 156 56 56
 56 56 56 150 150 150 14 14 67 67 67 67 67 67 67 160 160 160 160 60
 60 156 45 45 45 156 56 56 56 56 56 56 56 150 58 14 14 67 67 67
 67 67 67 67 160 160 163 160 60 60 60 60 205 205 101 101 101 101 56 86
 86 86 58 58 58 58 67 67 67 67 67 67 67 163 163 160 160 160 60 60
 205 205 101 101 101 101 101 86 86 86 86 15 58 58 58 58 67 67 67 67
 10 10 160 160 163 160 60 60 60 205 205 101 101 101 101 101 86 86 86 86
 15 15 58 58 58 226 10 10 10 10 10 160 160 160 198 60 60 60 205 101
 101 101 101 101 101 86 86 86 15 15 15 15 15 15 226 10 10 10 10 10
 10 198 198 198 198 198 60 9 167 167 167 101 101 101 86 86 86 15 15 15
 15 15 127 10 10 10 10 10 10 145 198 198 198 198 198 198 9 9 167 167
 167 167 167 167 86 86 15 15 15 15 15 127 10 10 10 10 10 10 145 198
 198 198 198 198 198 9 9 196 66 66 66 167 167 167 86 15 15 15 15 15
 41 10 10 10 10 10 10 145 198 198 198 198 9 9 9 196 196 196 196 66
 66 66 126 126 108 108 108 108 108 41 41 10 10 10 10 145 145 145 198 9
 9 9 9 9 196 196 196 196 196 126 126 126 126 108 108 108 108 108 41 41
 41 41 10 10 145 145 145 9 9 9 9 9 9 196 196 196 196 196 126 126
 126 126 108 108 108 108 108 108 41 41 41 41 116 116 118 118 118 9 9 9
 9 9 196 196 196 196 196 126 126 126 126 108 108 108 108 108 184 41 41 41
 41 116 118 118 118 118 27 27 9 9 196 196 196 196 206 126 126 126 126 126
 108 108 108 108 184 184 184 41 41 41 116 118 118 118 118 27 27 27 90 90
 196 238 206 206 206 126 126 126 126 69 69 69 69 184 184 184 184 41 41 118
 118 118 118 118 27 27 90 90 90 90 179 206 206 206 126 126 126 69 69 69
 69 69 184 184 43 43 43 43 118 118 118 118 118 27 90 90 90 90 90 115
 115 115 33 126 126 69 69 69 69 69 69 69 43 43 43 43 43 43 152 152
 152 152 91 90 90 90 90 115 115 115 115 115 33 49 49 49 69 69 69 88
 88 88 43 43 43 43 152 152 152 152 152 91 91 90 90 115 115 115 115 115
 115 115 107 107 49 69 88 88 88 88 88 43 43 43 43 152 152 152 152 152
 152 91 91 90 115 115 115 115 115 115 47 107 107 107 107 88 88 88 88 88
 77 122 77 77 152 152 152 152 152 152 152 152 90 24 24 115 115 115 47 47
 107 107 107 107 107 88 88 88 88 77 77 77 77 190 152 152 152 152 152 152
 152 242 242 242 242 24 47 47 47 107 107 107 107 107 218 218 218 77 77 77
 77 77 190 190 152 152 152 152 152 242 242 242 242 242 242 47 47 107 107 107
 107 107 107 218 218 218 77 77 77 77 77 190 190 68 68 68 68 68 242 242
 242 242 242 242 210 210 107 107 107 107 181 181 181 181 181 149 149 149 149 149
 190 190 68 68 68 68 242 242 242 242 242 242 210 210 210 107 107 181 181 181
 181 181 181 181 149 149 149 149 149 201 130 130 130 130 130 242 242 242 156 242
 210 210 210 210 210 181 181 181 181 181 181 181 181 181 149 149 149 137 137 130
 130 130 130 130 156 156 156 156 156 156 210 210 210 210 181 181 181 181 181 181
 181 181 181 149 137 137 137 137 130 130 130 130 130 156 156 156 156 156 156 156
 210 210 56 56 56 181 181 181 181 181 181 67 67 67 137 137 137 137 130 130
 130 130 156 156 156 156 156 156 156 156 56 56 56 56 56 132 132 132 132 132
 67 67 67 137 137 137 137 130 160 160 160 156 156 156 156 156 156 156 156 56
 56 56 56 56 132 132 132 132 132 67 67 67 67 67 137 137 160 160 160 160
 160 156 156 205 205 205 205 56 56 56 56 56 56 132 132 132 132 132 67 67
 67 67 67 67 160 160 160 160 160 160 160 156 205 205 205 205 101 101 101 56
 86 86 86 132 132 58 58 67 67 67 67 67 209 160 160 160 160 160 160 160
 160 205 205 205 101 101 101 101 86 86 86 86 86 15 58 58 58 67 67 67
 10 10 160 160 160 160 160 160 160 160 205 205 205 101 101 101 101 86 86 86
 86 15 15 15 15 15 127 10 10 10 10 10 160 160 160 160 160 160 160 205
 205 101 101 101 101 101 86 86 86 86 15 15 15 15 15 127 10 10 10 10
 10 10 198 198 198 198 198 198 9 9 101 101 101 101 101 86 86 86 86 15
 15 15 127 127 127 127 10 10 10 10 145 198 198 198 198 198 198 9 9 63
 66 66 66 66 66 86 86 15 15 15 15 127 127 127 10 10 10 10 145 145
 198 198 198 198 198 198 9 9 63 66 66 66 66 66 66 86 15 15 15 15
 41 41 127 10 10 10 10 145 145 145 198 198 9 9 9 9 63 63 63 66
 66 66 66 66 66 108 108 108 108 41 41 41 41 10 10 145 145 145 145 198
 9 9 9 9 9 63 63 63 63 66 66 126 126 126 108 108 108 108 108 41
 41 41 41 145 145 145 145 145 9 9 9 9 9 9 63 63 63 63 63 126
 126 126 126 108 108 108 108 108 41 41 41 41 41 116 116 116 118 118 9 9
 9 9 9 63 63 63 63 63 126 126 126 126 108 108 108 108 184 184 41 41
 41 41 116 116 118 118 118 27 27 9 9 63 63 63 63 63 63 126 126 126
 126 126 108 108 108 184 184 184 41 41 41 116 118 118 118 118 27 27 27 90
 90 63 63 63 63 63 126 126 126 126 69 69 69 69 184 184 184 184 41 41
 116 118 118 118 118 27 27 90 90 90 90 63 63 63 33 126 126 126 69 69
 69 69 69 184 184 43 43 43 43 43 118 118 118 118 27 90 90 90 90 90
 115 115 33 33 33 49 49 49 69 69 69 69 184 43 43 43 43 43 43 152
 152 152 152 152 90 90 90 90 115 115 115 115 33 33 49 49 49 49 69 69
 69 43 43 43 43 43 43 43 152 152 152 152 152 90 90 90 74 115 115 115
 115 47 47 49 49 49 49 69 88 88 88 43 43 43 43 43 152 152 152 152
 152 152 91 90 90 24 24 24 24 47 47 47 47 107 107 107 107 218 218 218
 218 122 122 122 122 190 152 152 152 152 152 152 152 90 24 24 24 24 47 47
 47 47 107 107 107 107 218 218 218 218 122 122 122 190 190 190 152 152 152 152
 152 152 242 242 242 24 24 47 47 47 107 107 107 107 107 218 218 218 218 122
 122 77 190 190 190 190 152 152 152 152 242 242 242 242 242 24 47 47 47 107
 107 107 107 107 218 218 218 218 77 77 77 190 190 190 190 152 152 152 152 242
 242 242 242 242 210 210 47 107 107 107 107 107 107 181 218 218 218 149 149 149
 190 190 190 130 130 130 130 242 242 242 242 242 210 210 210 210 107 107 107 107
 181 181 181 181 181 181 149 149 149 137 190 130 130 130 130 130 130 242 242 156
 210 210 210 210 210 107 107 181 181 181 181 181 181 181 181 148 137 137 137 137
 130 130 130 130 130 130 156 156 156 156 210 210 210 210 210 107 181 181 181 181
 181 181 181 181 137 137 137 137 137 130 130 130 130 130 130 156 156 156 156 156
 210 210 210 56 56 56 181 181 132 132 181 181 181 137 137 137 137 137 137 130
 130 130 130 156 156 156 156 156 156 156 210 56 56 56 56 56 132 132 132 132
 132 67 67 137 137 137 137 137 130 130 19 19 19 156 156 156 156 156 156 210
 56 56 56 56 56 132 132 132 132 132 67 67 137 137 137 137 137 160 160 160
 160 160 160 156 205 205 205 205 205 56 56 56 56 132 132 132 132 132 132 67
 67 67 67 137 137 137 160 160 160 160 160 160 205 205 205 205 205 101 101 101
 56 86 86 132 132 132 132 132 87 67 67 209 209 209 209 160 160 160 160 160
 160 205 205 205 205 205 101 101 101 86 86 86 86 86 15 58 58 127 127 209
 209 209 209 48 160 160 160 160 160 160 205 205 205 205 101 101 101 101 86 86
 86 86 86 15 15 15 127 127 127 10 10 10 48 160 160 160 160 160 160 205
 205 205 205 101 101 101 101 86 86 86 86 15 15 15 15 127 127 127 10 10
 10 48 48 160 198 198 198 198 198 53 53 63 101 101 101 245 245 245 86 86
 15 15 15 127 127 127 127 127 10 145 145 145 198 198 198 198 198 198 9 53
 63 66 66 66 245 245 245 245 86 15 15 127 127 127 127 127 10 10 145 145
 145 145 198 198 198 198 9 9 63 63 66 66 66 66 245 245 245 199 199 199
 127 127 127 127 127 10 145 145 145 145 145 198 198 9 9 9 9 63 63 63
 66 66 66 66 245 245 199 199 199 108 41 41 41 41 41 145 145 145 145 145
 145 9 9 9 9 9 63 63 63 63 66 66 66 126 199 199 199 199 108 108
 41 41 41 41 145 145 145 145 145 145 9 9 9 9 63 63 63 63 63 63
 66 126 126 126 199 199 199 108 184 41 41 41 41 41 116 116 116 116 118 9
 9 9 9 63 63 63 63 63 63 126 126 126 126 199 199 199 184 184 184 41
 41 41 41 116 116 116 116 118 27 27 9 9 63 63 63 63 63 63 126 126
 126 126 199 199 199 184 184 184 184 41 41 41 116 116 116 118 118 27 27 27
 90 63 63 63 63 63 63 126 126 126 49 69 69 69 184 184 184 184 184 41
 41 116 118 118 118 118 27 27 90 90 90 90 63 63 63 33 33 33 49 49
 69 69 69 69 184 184 43 43 43 43 43 118 118 118 118 27 90 90 90 90
 74 74 33 33 33 33 33 49 49 49 69 69 69 184 43 43 43 43 43 43
 152 152 152 152 152 90 90 90 74 74 74 74 33 33 33 33 49 49 49 49
 69 109 43 43 43 43 43 43 43 152 152 152 152 152 90 90 90 74 74 74
 74 33 33 33 33 49 49 49 49 109 109 109 43 43 43 43 43 43 152 152
 152 152 152 152 90 74 74 74 24 24 47 47 47 47 49 49 49 218 218 218
 218 122 122 122 122 122 190 190 152 152 152 152 152 74 74 74 24 24 24 47
 47 47 47 107 107 107 218 218 218 218 218 122 122 122 190 190 190 190 152 152
 152 152 74 74 242 24 24 24 47 47 47 47 107 107 107 107 218 218 218 218
 122 122 122 190 190 190 190 190 152 152 152 242 242 242 242 24 24 24 47 47
 107 107 107 107 107 218 218 218 218 122 77 190 190 190 190 190 190 152 152 242
 242 242 242 242 210 210 210 47 107 107 107 107 107 107 107 218 218 218 148 148