# vtk DataFile Version 2.0
Data set from ImportExport Version 6.5.171.b0b162591
ASCII

DATASET RECTILINEAR_GRID
DIMENSIONS 30 30 30
X_COORDINATES 30 float
-1.250000 1.250000 3.750000 6.250000 8.750000 11.250000 13.750000 16.250000 18.750000 21.250000 23.750000 26.250000 28.750000 31.250000 33.750000 36.250000 38.750000 41.250000 43.750000 46.250000 48.750000 
51.250000 53.750000 56.250000 58.750000 61.250000 63.750000 66.250000 68.750000 71.250000 
Y_COORDINATES 30 float
-1.250000 1.250000 3.750000 6.250000 8.750000 11.250000 13.750000 16.250000 18.750000 21.250000 23.750000 26.250000 28.750000 31.250000 33.750000 36.250000 38.750000 41.250000 43.750000 46.250000 48.750000 
51.250000 53.750000 56.250000 58.750000 61.250000 63.750000 66.250000 68.750000 71.250000 
Z_COORDINATES 30 float
-1.250000 1.250000 3.750000 6.250000 8.750000 11.250000 13.750000 16.250000 18.750000 21.250000 23.750000 26.250000 28.750000 31.250000 33.750000 36.250000 38.750000 41.250000 43.750000 46.250000 48.750000 
51.250000 53.750000 56.250000 58.750000 61.250000 63.750000 66.250000 68.750000 71.250000 
CELL_DATA 24389
SCALARS FeatureIds int 1
LOOKUP_TABLE default
<<<<<<< Updated upstream
 124 124 124 124 124 124 1 240 240 228 147 147 147 147 147 147 239 239 239 178
 178 178 178 178 178 178 63 63 71 71 124 230 230 230 230 1 1 203 78 78
 147 147 147 147 147 239 239 239 178 178 178 178 178 178 178 63 63 71 71 230
 230 230 230 230 230 203 203 203 78 78 147 147 147 147 239 239 239 178 178 178
 178 178 63 63 63 63 71 71 230 230 230 230 230 230 203 203 203 78 78 78
 147 147 147 239 239 239 178 178 178 178 63 63 63 63 63 71 71 230 230 230
 230 230 230 203 203 203 78 78 78 147 147 147 111 111 111 111 178 178 63 63
 63 63 63 63 63 114 114 130 130 130 130 164 164 203 203 78 78 78 241 241
 241 111 111 111 111 111 178 63 63 63 63 63 63 63 114 114 130 130 130 130
 164 164 164 164 78 78 241 241 241 241 241 241 111 111 111 8 63 63 63 63
 63 63 63 114 114 130 130 130 130 164 164 164 164 164 241 241 241 241 241 241
 241 241 241 8 8 8 63 63 63 63 63 114 114 114 130 130 130 130 174 174
 164 164 164 241 241 241 241 241 241 241 241 241 8 8 8 8 8 8 63 63
 114 114 114 130 130 130 174 174 174 174 174 14 77 77 77 241 241 241 241 60
 60 60 8 8 8 8 8 8 153 153 153 153 130 130 130 174 174 174 174 14
 14 14 77 77 77 241 60 60 60 60 60 8 8 8 8 8 8 153 153 153
 153 153 130 130 174 174 174 174 14 14 14 77 77 77 77 60 60 60 60 60
 8 8 8 8 8 153 153 153 153 153 153 32 32 219 219 219 219 14 14 14
 77 77 77 77 60 60 60 60 60 60 8 8 8 153 153 153 153 153 32 32
 32 32 219 219 219 219 219 14 14 77 77 77 77 60 60 60 60 60 60 80
 80 153 153 153 153 153 32 32 32 32 32 219 219 219 219 219 219 173 77 77
 77 11 60 60 60 60 60 80 80 80 80 80 80 153 32 32 32 32 32 32
 219 219 219 219 219 219 173 11 11 11 11 11 11 60 60 80 80 80 80 80
 80 80 2 32 32 32 32 32 32 219 219 219 219 219 219 173 11 11 11 11
 11 11 11 11 80 80 80 80 80 80 80 2 2 32 32 32 32 32 219 219
 219 219 219 24 24 11 11 11 11 11 11 11 11 80 80 80 80 80 80 2
 2 2 2 32 32 32 32 107 107 107 17 17 17 24 11 11 11 11 11 11
 11 11 80 80 80 80 80 80 2 2 2 2 32 32 32 32 134 134 17 17
 17 17 17 24 11 11 11 11 11 11 141 172 172 172 172 80 80 80 2 2
 135 135 214 214 134 134 134 134 17 17 17 17 17 139 139 139 139 139 139 141
 172 172 172 172 172 172 80 2 2 135 135 214 214 134 134 134 134 17 17 17
 17 17 139 139 139 139 139 139 141 141 172 172 172 172 172 245 245 245 135 135
 135 214 214 134 134 134 17 17 17 17 17 10 10 10 10 10 10 141 141 172
 172 172 172 172 245 245 245 135 135 135 135 135 134 134 134 17 17 17 17 10
 10 10 10 10 10 10 141 141 141 172 172 172 245 245 245 245 135 135 135 135
 135 134 134 134 17 17 17 10 10 10 10 10 10 10 209 127 127 127 127 127
 172 245 245 245 245 214 214 124 124 124 124 124 240 240 240 240 10 10 10 10
 10 10 10 209 127 127 127 127 127 127 245 245 245 245 214 124 124 124 124 124
 124 240 240 240 240 10 10 10 10 10 10 10 209 127 127 127 127 127 127 245
 245 245 245 124 124 124 124 124 124 124 240 240 240 240 147 147 10 10 10 10
 10 209 127 127 127 127 127 127 245 245 245 245 124 124 124 124 124 124 124 240
 240 240 240 147 147 147 147 10 10 10 209 178 178 178 178 178 178 245 245 245
 245 124 124 124 124 124 124 1 240 240 228 240 147 147 147 147 147 239 239 239
 178 178 178 178 178 178 178 178 71 71 71 71 71 124 124 124 1 1 228 228
 228 147 147 147 147 147 239 239 239 178 178 178 178 178 178 178 63 71 71 71
 71 71 71 230 230 1 226 226 226 78 78 147 147 147 147 239 239 239 178 178
 178 178 178 178 63 63 71 71 71 71 71 71 230 145 226 226 226 226 78 78
 78 147 147 147 147 239 239 178 178 178 178 178 63 63 63 63 71 71 71 71
 71 145 145 145 226 226 226 78 78 78 147 147 147 241 111 111 111 178 178 178
 63 63 63 63 63 71 114 114 130 130 130 145 145 226 226 226 226 78 78 241
 241 241 241 241 241 241 178 178 63 63 63 63 63 63 71 114 114 130 130 130
 130 145 164 226 226 226 78 241 241 241 241 241 241 241 241 8 8 63 63 63
 63 63 63 63 114 114 130 130 130 130 164 164 164 164 164 241 241 241 241 241
 241 241 241 241 8 8 8 8 63 63 63 63 114 114 114 130 130 130 130 174
 174 164 164 241 241 241 241 241 241 241 241 241 241 8 8 8 8 8 8 8
 114 114 114 114 130 130 130 130 174 174 174 174 14 77 77 77 241 241 241 60
 60 60 8 8 8 8 8 8 8 114 114 153 153 130 130 130 130 174 174 39
 14 14 77 77 77 77 77 60 60 60 60 60 8 8 8 8 8 8 153 153
 153 153 153 130 130 219 174 39 39 14 14 77 77 77 77 77 60 60 60 60
 60 8 8 8 8 8 8 153 153 153 32 32 32 32 219 219 219 219 219 14
 77 77 77 77 77 60 60 60 60 60 8 8 8 8 8 153 153 153 32 32
 32 32 32 219 219 219 219 219 219 77 77 77 77 77 60 60 60 60 60 8
 8 8 80 80 153 32 32 32 32 32 32 32 219 219 219 219 219 219 173 77
 77 77 11 60 60 60 60 60 80 80 80 80 80 80 32 32 32 32 32 32
 32 219 219 219 219 219 173 173 173 11 11 11 11 11 11 11 176 80 80 80
 80 80 80 2 32 32 32 32 32 32 219 219 219 219 219 219 173 11 11 11
 11 11 11 11 11 176 80 80 80 80 80 80 2 2 2 32 32 32 32 107
 107 107 219 219 24 24 24 11 11 11 11 11 11 11 80 80 80 80 80 80
 2 2 2 2 32 32 32 32 107 107 107 107 24 24 24 24 11 11 11 11
 11 11 11 176 80 80 80 80 80 2 2 2 2 32 32 32 32 107 107 107
 17 24 24 24 24 24 11 11 11 11 11 141 141 172 172 172 80 80 80 2
 2 2 135 135 135 5 134 134 134 17 17 24 24 24 24 139 139 139 139 139
 141 141 172 172 172 172 172 154 154 2 135 135 135 135 134 134 134 134 17 17
 17 24 24 139 139 139 139 139 139 141 141 172 172 172 172 172 245 245 245 135
 135 135 135 135 134 134 134 17 17 17 17 17 139 139 139 139 139 141 141 141
 141 172 172 172 172 245 245 245 135 135 135 135 135 134 134 134 17 17 17 17
 10 10 10 10 10 10 141 141 141 141 141 172 172 245 245 245 245 135 135 135
 135 135 124 134 134 240 240 240 10 10 10 10 10 10 10 10 141 141 141 141
 141 141 245 245 245 245 135 135 124 124 124 124 124 240 240 240 240 240 10 10
 10 10 10 10 10 141 141 141 141 141 141 245 245 245 245 135 124 124 124 124
 124 240 240 240 240 240 240 116 10 10 10 10 10 10 141 141 141 141 141 141
 245 245 245 245 124 124 124 124 124 124 240 240 240 240 240 240 116 116 10 10
 10 10 10 178 178 127 178 178 178 245 245 245 245 124 124 124 124 124 124 240
 240 240 240 240 240 147 147 147 10 10 10 10 178 178 178 178 178 178 178 245
 245 245 71 124 124 124 124 124 1 1 228 228 228 147 147 147 147 147 147 239
 178 178 178 178 178 178 178 178 167 167 71 71 71 71 71 124 1 1 1 228
 228 228 147 147 147 147 147 147 239 178 178 178 178 178 178 178 178 63 71 71
 71 71 71 71 71 1 1 1 226 226 226 78 147 147 147 147 147 239 178 178
 178 178 178 178 63 63 63 71 71 71 71 71 71 145 145 226 226 226 226 226
 78 78 147 147 147 147 147 178 178 178 178 105 105 63 63 63 63 71 71 71
 71 71 145 145 145 226 226 226 226 78 78 147 147 241 241 241 241 178 178 105
 105 105 63 63 63 63 71 71 71 130 130 145 145 145 226 226 226 226 226 78
 241 241 241 241 241 241 241 105 105 105 105 63 63 63 63 71 114 114 130 130
 130 145 145 226 226 226 226 226 241 241 241 241 241 241 241 241 105 105 105 105
 63 63 63 63 71 114 114 130 130 130 130 145 226 226 226 226 241 241 241 241
 241 241 241 241 241 8 8 8 8 8 63 63 63 114 114 114 130 130 130 130
 130 110 110 110 110 241 241 241 241 241 241 241 241 8 8 8 8 8 8 8
 8 8 114 114 114 130 130 130 130 39 39 39 110 110 77 77 77 77 241 60
 60 60 60 8 8 8 8 8 8 8 8 238 238 238 130 130 130 130 39 39
 39 39 77 77 77 77 77 77 60 60 60 60 8 8 8 8 8 8 8 8
 238 32 32 32 130 130 39 39 39 39 39 77 77 77 77 77 77 60 60 60
 60 60 8 8 8 8 8 8 8 153 32 32 32 32 219 219 219 219 219 219
 77 77 77 77 77 77 60 60 60 60 60 8 8 8 8 8 8 153 153 32
 32 32 32 219 219 219 219 219 219 219 77 77 77 77 77 60 60 60 60 60
 8 8 8 8 80 153 32 32 32 32 32 32 219 219 219 219 219 219 173 173
 173 77 77 11 60 60 60 60 176 176 176 80 80 80 80 32 32 32 32 32
 32 219 219 219 219 219 219 173 173 173 173 11 11 11 11 11 176 176 176 176
 80 80 80 80 2 32 32 32 32 32 32 219 219 219 219 219 173 173 173 11
 11 11 11 11 11 176 176 176 80 80 80 80 80 2 2 2 32 32 32 32
 107 107 107 107 219 24 24 24 11 11 11 11 11 11 176 176 176 80 80 80
 80 80 2 2 2 32 32 32 32 107 107 107 107 24 24 24 24 24 11 11
 11 11 11 176 176 176 80 80 80 80 80 2 2 2 2 32 32 5 107 107
 107 107 24 24 24 24 24 139 139 139 139 139 141 141 172 172 172 80 80 80
 2 2 2 135 135 5 5 5 5 5 24 24 24 24 24 24 139 139 139 139
 139 141 141 172 172 172 172 154 154 154 2 135 135 135 135 5 5 5 5 24
 24 24 24 24 139 139 139 139 139 141 141 141 141 172 172 172 154 154 245 245
 135 135 135 135 5 5 5 5 17 24 24 24 24 139 139 139 139 139 141 141
 141 141 141 172 154 154 245 245 245 135 135 135 135 135 5 5 134 240 17 17
 10 10 10 10 10 10 10 141 141 141 141 141 141 141 245 245 245 245 135 135
 135 135 135 124 240 240 240 240 240 10 10 10 10 10 10 10 141 141 141 141
 141 141 141 245 245 245 245 135 135 124 124 124 124 240 240 240 240 240 240 116
 10 10 10 10 10 10 141 141 141 141 141 141 245 245 245 245 124 124 124 124
 124 124 240 240 240 240 240 240 116 116 10 10 10 10 10 141 141 141 141 141
 141 245 245 245 245 124 124 124 124 124 124 240 240 240 240 240 240 116 116 116
 10 10 10 10 103 103 103 103 103 103 245 245 245 245 124 124 124 124 124 124
 240 240 240 240 240 240 116 116 116 116 10 10 10 178 178 178 178 103 103 103
 245 245 245 97 97 97 124 124 1 1 1 228 228 228 228 147 147 147 147 147
 147 103 103 103 103 103 103 103 167 167 167 97 97 71 71 71 71 1 1 1
 225 225 225 225 147 147 147 147 147 147 178 178 178 178 178 178 105 105 167 167
 71 71 71 71 71 71 1 1 1 226 226 226 226 147 147 147 147 147 147 25
 178 178 178 105 105 105 105 63 71 71 71 71 71 71 145 145 226 226 226 226
 226 226 78 147 147 147 147 147 25 25 105 105 105 105 105 105 63 71 71 71
 71 71 71 145 145 145 226 226 226 226 226 226 147 147 241 241 241 241 25 105
 105 105 105 105 105 63 63 71 71 71 71 145 145 145 145 226 226 226 226 226
 226 241 241 241 241 241 241 105 105 105 105 105 105 63 63 63 71 114 114 18
 18 145 145 145 145 226 226 226 226 241 241 241 241 241 241 241 241 105 105 105
 105 105 105 63 63 71 114 114 18 18 18 18 145 145 110 110 110 110 241 241
 241 241 241 241 241 241 8 8 8 8 8 8 63 63 238 238 238 130 18 18
 18 18 110 110 110 110 110 77 241 241 241 241 241 241 8 8 8 8 8 8
 8 8 238 238 238 238 130 18 18 18 39 39 110 110 110 110 77 77 77 241
 60 60 60 8 8 8 8 8 8 8 8 238 238 238 238 238 18 18 39 39
 39 39 39 110 77 77 77 77 77 60 60 60 60 8 8 8 8 8 8 8
 238 238 238 197 197 197 39 39 39 39 39 39 110 77 77 77 77 77 60 60
 60 60 8 8 8 8 8 8 8 238 238 197 197 197 197 197 219 219 39 39
 39 39 15 15 15 15 15 60 60 60 60 60 8 8 8 8 8 8 197 197
 197 197 197 32 171 219 219 219 219 219 173 173 15 15 15 15 60 60 60 60
 176 8 8 8 8 8 80 32 32 32 32 32 32 171 219 219 219 219 219 173
 173 173 15 15 15 60 60 60 176 176 176 176 176 80 80 80 32 32 32 32
 32 32 171 219 219 219 219 219 173 173 173 173 15 11 11 30 30 176 176 176
 176 176 80 80 80 2 32 32 32 32 32 171 171 219 219 219 219 173 173 173
 173 11 11 11 30 30 176 176 176 176 176 80 80 80 2 2 32 32 32 32
 171 171 107 107 107 219 24 24 24 24 11 11 11 30 30 176 176 176 176 176
 80 80 80 2 2 2 32 32 32 171 107 107 107 107 24 24 24 24 24 11
 11 11 11 30 176 176 176 176 176 80 80 80 2 2 2 2 32 5 5 5
 107 107 107 24 24 24 24 24 139 139 139 139 139 176 176 176 176 172 154 154
 154 2 2 2 135 5 5 5 5 5 5 24 24 24 24 24 24 139 139 139
 139 139 6 6 6 172 172 154 154 154 154 154 135 135 135 5 5 5 5 5
 5 24 24 24 24 139 139 139 139 139 141 141 141 141 141 172 154 154 154 154
 245 135 135 135 5 5 5 5 5 5 24 24 24 24 139 139 139 139 139 141
 141 141 141 141 141 154 154 154 245 245 135 135 135 135 5 5 5 5 236 236
 236 236 10 10 139 139 139 10 141 141 141 141 141 141 141 154 245 245 245 135
 135 135 135 124 124 5 236 236 236 236 236 10 10 10 10 10 10 141 141 141
 141 141 141 141 245 245 245 245 135 135 124 124 124 124 240 240 240 240 240 240
 116 116 10 10 10 10 10 141 141 141 141 141 141 102 102 102 102 124 124 124
 124 124 124 240 240 240 240 240 240 116 116 116 10 10 10 10 141 141 103 103
 103 103 102 102 102 102 124 124 124 124 124 124 240 240 240 240 240 240 116 116
 116 116 10 10 10 103 103 103 103 103 103 103 102 102 102 97 97 124 124 124
 124 240 240 240 240 240 240 116 116 116 116 10 10 10 103 103 103 103 103 103
 103 167 102 102 97 97 97 97 97 1 1 1 228 228 228 228 116 116 116 147
 156 156 103 103 103 103 103 103 167 167 167 167 97 97 97 97 97 97 1 1
 1 228 228 228 226 147 147 147 147 147 25 25 103 178 178 178 105 105 167 167
 167 97 97 97 71 71 71 1 1 1 226 226 226 226 226 147 147 147 147 25
 25 25 105 105 105 105 105 105 167 167 97 71 71 71 71 145 145 226 226 226
 226 226 226 226 147 147 23 23 25 25 25 105 105 105 105 105 105 3 3 71
 71 71 71 71 145 145 145 226 226 226 226 226 226 226 23 23 23 23 25 25
 105 105 105 105 105 105 3 3 71 71 71 71 18 145 145 145 226 226 226 226
 226 226 23 23 23 23 241 149 105 105 105 105 105 105 105 105 3 71 71 71
 18 18 18 18 145 145 226 226 226 226 226 241 23 23 23 241 149 105 105 105
 105 105 105 105 105 105 238 238 238 18 18 18 18 18 110 110 110 110 110 110
 241 241 23 241 241 241 105 105 105 105 105 105 105 105 238 238 238 238 18 18
 18 18 18 110 110 110 110 110 110 241 241 241 241 241 8 8 8 8 8 8
 8 8 8 238 238 238 238 238 18 18 18 39 39 110 110 110 110 77 77 77
 241 60 60 60 8 8 8 8 8 8 8 8 238 238 238 238 238 18 18 18
 39 39 39 110 110 110 77 77 77 77 60 60 60 8 8 8 8 8 8 8
 8 238 238 238 197 197 197 129 39 39 39 39 39 110 110 15 15 15 15 60
 60 60 60 8 8 8 8 8 8 8 238 238 197 197 197 197 197 171 39 39
 39 39 110 15 15 15 15 15 60 60 60 60 8 8 8 8 8 8 8 197
 197 197 197 197 197 171 171 219 219 219 219 15 15 15 15 15 15 15 60 60
 26 26 26 26 8 8 8 197 197 197 197 197 197 171 171 171 219 219 219 219
 173 173 15 15 15 15 15 15 176 176 176 176 176 176 118 118 118 197 197 32
 32 32 171 171 171 219 219 219 219 173 173 173 15 15 15 30 30 176 176 176
 176 176 176 118 118 118 118 32 32 32 32 171 171 171 219 219 219 219 173 173
 173 15 15 30 30 30 30 176 176 176 176 176 118 118 118 118 2 32 32 32
 171 171 171 107 107 107 219 24 24 24 24 11 30 30 30 30 176 176 176 176
 176 118 118 118 118 2 2 32 32 171 171 171 107 107 107 24 24 24 24 24
 24 30 30 30 30 176 176 176 176 176 118 118 118 118 2 2 2 5 5 5
 5 5 107 107 24 24 24 24 24 139 139 139 139 30 176 176 176 176 176 154
 154 154 154 2 2 5 5 5 5 5 5 5 5 24 24 24 24 139 139 139
 139 139 139 6 6 6 6 6 154 154 154 154 154 135 135 5 5 5 5 5
 5 5 24 24 24 24 139 139 139 139 139 139 6 6 6 6 6 154 154 154
 154 154 135 135 5 5 5 5 5 5 5 236 24 24 24 139 139 139 139 139
 141 141 141 141 141 141 154 154 154 154 245 135 135 135 5 5 5 5 5 236
 236 236 236 27 139 139 139 139 139 141 141 141 141 141 141 141 154 154 102 102
 135 135 135 135 5 5 5 236 236 236 236 236 236 10 10 10 10 10 141 141
 141 141 141 141 141 102 102 102 102 102 135 124 124 124 124 236 236 236 236 236
 236 116 116 10 10 10 10 141 141 141 141 141 141 141 102 102 102 102 102 124
 124 124 124 240 240 240 240 240 240 240 116 116 116 10 10 10 103 103 103 103
 103 103 103 102 102 102 102 97 124 124 124 124 124 240 240 240 240 240 240 116
 116 116 116 156 156 103 103 103 103 103 103 103 102 102 102 102 97 97 97 97
 124 240 240 240 240 240 240 240 116 116 116 116 156 156 103 103 103 103 103 103
 103 167 167 102 102 97 97 97 97 97 1 1 1 228 228 228 228 116 116 116
 156 156 156 156 103 103 103 103 103 167 167 167 167 167 97 97 97 97 97 1
 1 1 228 228 228 226 147 147 147 156 156 25 25 25 25 25 103 105 167 167
 167 167 167 97 97 97 97 97 1 1 226 226 226 226 226 226 147 147 23 23
 25 25 25 25 105 105 105 105 3 167 167 167 97 97 71 71 71 145 226 226
 226 226 226 226 226 23 23 23 23 25 25 25 25 105 105 105 105 3 3 3
 3 71 71 71 71 145 145 145 226 226 226 226 226 226 23 23 23 23 149 25
 25 25 105 105 105 105 3 3 3 3 71 71 18 18 18 18 18 226 226 226
 226 226 23 23 23 23 23 149 149 25 105 105 105 105 105 105 3 3 3 238
 71 18 18 18 18 18 18 226 226 226 226 23 23 23 23 23 149 149 193 193
 105 105 105 105 105 3 3 3 238 238 18 18 18 18 18 110 110 110 110 110
 110 23 23 23 23 149 149 193 193 193 105 105 105 105 3 3 238 238 238 18
 18 18 18 18 110 110 110 110 110 110 23 23 23 23 149 149 193 193 193 8
 8 8 8 3 238 238 238 238 238 18 18 18 39 39 110 110 110 110 110 12
 12 12 12 12 12 8 8 8 8 8 8 8 8 238 238 238 238 129 129 129
 129 39 39 39 110 110 110 110 15 15 12 12 12 12 8 8 8 8 8 8
 8 8 238 238 238 197 129 129 129 129 39 39 39 39 110 110 15 15 15 12
 12 12 12 8 8 8 8 8 8 8 8 238 238 197 197 197 129 129 171 39
 39 39 39 110 15 15 15 15 229 229 229 229 26 26 26 26 8 8 8 8
 238 197 197 197 197 197 171 171 171 219 219 219 15 15 15 15 15 229 229 229
 229 26 26 26 26 26 8 8 197 197 197 197 197 197 171 171 171 171 219 219
 219 173 15 15 15 15 229 229 229 229 176 176 176 176 176 118 118 118 133 197
 123 123 123 171 171 171 171 219 219 219 173 173 15 15 15 229 229 30 30 176
 176 176 176 176 118 118 118 133 133 123 123 123 171 171 171 171 219 219 219 173
 173 173 15 15 30 30 30 30 176 176 176 176 176 118 118 118 118 118 123 123
 123 171 171 171 171 219 219 219 24 24 24 24 30 30 30 30 30 176 176 176
 176 176 118 118 118 118 118 123 123 123 171 171 171 171 107 107 24 24 24 24
 24 24 30 30 30 30 176 176 176 176 176 118 118 118 118 118 123 123 5 5
 5 5 5 107 24 24 24 24 24 24 139 139 139 30 30 176 176 176 176 176
 118 118 118 118 118 5 5 5 5 5 5 5 5 5 24 24 24 24 139 139
 139 139 139 6 6 6 6 6 6 154 154 154 154 154 135 5 5 5 5 5
 5 5 53 24 24 24 24 139 139 139 139 139 139 6 6 6 6 6 154 154
 154 154 154 135 135 5 5 5 5 5 5 53 53 236 27 27 27 139 139 139
 139 141 6 6 6 6 6 154 154 154 154 245 135 206 206 206 5 5 53 53
 236 236 236 236 27 27 27 139 139 139 141 141 141 141 141 141 141 154 102 102
 102 102 102 206 206 5 53 53 236 236 236 236 236 27 27 27 27 10 156 141
 141 141 141 141 141 141 102 102 102 102 102 102 206 206 124 53 53 236 236 236
 236 236 116 116 116 156 156 156 156 141 103 103 103 103 103 102 102 102 102 102
 102 124 124 124 240 240 236 236 236 236 236 116 116 116 156 156 156 156 103 103
 103 103 103 103 102 102 102 102 102 97 97 97 97 124 240 240 240 240 240 240
 116 116 116 156 156 156 156 103 103 103 103 103 103 102 102 102 102 97 97 97
 97 97 240 240 240 240 240 240 240 116 116 116 156 156 156 156 103 103 103 103
 103 103 167 167 167 167 97 97 97 97 76 136 136 1 228 228 228 228 116 116
 156 156 156 156 156 103 103 103 103 103 167 167 167 167 167 97 97 97 97 76
 136 136 1 228 228 228 226 147 147 156 156 156 25 25 25 25 25 103 3 3
 167 167 167 167 97 97 97 97 76 136 217 226 226 226 226 226 226 23 23 23
 23 25 25 25 25 25 105 3 3 3 167 167 167 97 97 97 97 76 136 217
 226 226 226 226 226 23 23 23 23 23 25 25 25 25 25 105 105 3 3 3
 3 167 71 71 71 71 18 145 145 226 226 226 226 226 23 23 23 23 23 149
 25 25 25 105 105 105 3 3 3 3 3 235 71 18 18 18 18 18 226 226
 226 226 226 23 23 23 23 23 149 149 25 193 105 105 105 105 3 3 3 3
 238 235 18 18 18 18 18 18 110 110 110 226 23 23 23 23 23 149 149 193
 193 193 105 105 105 3 3 3 3 238 235 18 18 18 18 18 110 110 110 110
 110 23 23 23 23 23 149 149 193 193 193 193 105 105 105 3 3 3 238 238
 18 18 18 18 18 110 110 110 110 110 110 23 23 23 23 149 149 193 193 193
 193 105 105 105 3 238 238 238 238 129 129 18 18 39 110 110 110 110 110 110
 12 12 12 12 12 12 193 193 193 193 8 8 8 238 238 238 238 122 129 129
 129 129 39 39 110 110 110 110 110 12 12 12 12 12 12 193 193 8 8 8
 8 8 238 238 238 122 122 129 129 129 129 39 39 39 110 110 110 15 15 12
 12 12 12 12 26 26 26 26 8 8 8 94 238 238 197 197 129 129 129 129
 39 39 39 142 142 15 15 15 229 229 229 229 229 26 26 26 26 26 94 94
 94 197 197 197 197 197 197 171 171 171 171 142 142 142 15 15 15 229 229 229
 229 229 26 26 26 26 26 58 58 133 197 197 123 123 123 171 171 171 171 171
 142 142 142 15 15 15 229 229 229 229 229 26 26 26 26 58 58 58 133 133
 133 123 123 123 171 171 171 171 171 219 219 142 15 15 15 229 229 229 229 176
 176 176 176 176 176 58 58 133 133 133 123 123 123 171 171 171 171 171 219 219
 142 15 15 15 229 30 30 30 30 176 176 176 176 176 118 118 118 133 123 123
 123 123 171 171 171 171 219 219 219 24 24 24 15 30 30 30 30 30 176 176
 176 176 176 118 118 118 118 123 123 123 123 171 171 171 171 107 163 24 24 24
 24 24 30 30 30 30 30 176 176 176 176 176 118 118 118 118 118 123 123 123
 57 57 57 57 57 24 24 24 24 24 24 139 139 30 30 30 176 176 176 176
 176 118 118 118 118 118 123 5 5 5 57 57 57 57 57 24 24 24 24 27
 139 139 139 40 6 6 6 6 6 6 154 154 154 154 244 5 5 5 5 5
 5 57 57 53 53 24 27 27 27 27 139 139 139 6 6 6 6 6 6 154
 154 154 154 244 206 206 206 206 5 57 57 53 53 53 53 27 27 27 27 27
 139 40 6 6 6 6 6 6 154 154 154 102 102 206 206 206 206 206 57 53
 53 53 236 236 27 27 27 27 27 27 156 168 6 6 6 6 6 141 102 102
 102 102 102 206 206 206 206 53 53 53 236 236 236 27 27 27 27 27 156 156
 168 168 168 141 141 141 141 102 102 102 102 102 102 206 206 206 53 53 236 236
 236 236 236 27 27 27 156 156 156 156 168 103 103 103 103 103 102 102 102 102
 102 102 206 206 206 53 53 236 236 236 236 236 116 116 116 156 156 156 156 103
 103 103 103 103 103 102 102 102 102 97 97 97 97 76 121 121 121 121 236 236
 236 116 116 116 156 156 156 156 103 103 103 103 103 103 115 115 102 102 97 97
 97 97 76 136 121 121 121 121 121 240 116 116 116 156 156 156 156 103 103 103
 103 103 103 167 167 167 167 167 97 76 76 76 136 136 217 217 121 121 121 116
 116 156 156 156 156 156 25 25 103 103 167 167 167 167 167 167 167 97 76 76
 76 136 136 217 217 217 217 217 16 23 23 156 156 25 25 25 25 25 3 3
 3 167 167 167 167 167 97 76 76 76 136 217 217 217 217 226 226 23 23 23
 23 23 25 25 25 25 25 3 3 3 3 167 167 167 167 97 76 76 76 136
 217 217 217 217 226 226 23 23 23 23 23 25 25 25 25 25 105 3 3 3
 3 3 167 3 235 76 76 76 136 217 217 226 226 226 23 23 23 23 23 23
 149 25 25 25 25 105 3 3 3 3 3 3 235 235 235 18 18 18 18 217
 226 226 226 23 23 23 23 23 23 149 149 25 193 193 105 105 3 3 3 3
 3 235 235 235 18 18 18 18 18 110 110 110 23 23 23 23 23 23 149 149
 193 193 193 193 105 3 3 3 3 3 235 235 235 18 18 18 18 110 110 110
 110 215 215 23 23 23 23 149 149 193 193 193 193 105 105 3 3 3 235 235
 235 235 18 18 18 18 110 110 110 110 215 215 23 23 23 23 12 149 193 193
 193 193 193 105 105 3 4 4 4 4 129 129 129 129 39 110 110 110 110 215
 215 12 12 12 12 12 12 193 193 193 193 193 94 94 94 4 4 122 122 129
 129 129 129 39 39 110 110 110 215 215 12 12 12 12 12 12 12 193 193 8
 94 94 94 94 4 4 122 122 129 129 129 129 39 142 142 142 142 215 12 12
 12 12 12 12 12 12 26 26 26 94 94 94 94 4 4 122 122 129 129 129
 129 142 142 142 142 142 142 15 12 229 229 229 12 12 26 26 26 26 94 94
 94 94 4 170 123 123 123 129 129 171 171 142 142 142 142 142 15 229 229 229
 229 229 12 26 26 26 26 26 58 58 58 58 170 123 123 123 123 171 171 171
 142 142 142 142 142 15 229 229 229 229 229 229 26 26 26 26 58 58 58 133
 133 133 123 123 123 123 171 171 171 171 142 142 142 142 15 229 229 229 229 229
 229 113 113 113 113 58 58 58 133 133 133 123 123 123 123 171 171 171 163 163
 163 142 142 15 229 229 229 30 30 30 176 176 176 176 58 58 58 133 133 133
 123 123 123 123 171 171 163 163 163 163 42 42 42 42 30 30 30 30 30 176
 176 176 176 176 118 118 58 58 123 123 123 123 123 57 163 163 163 163 163 42
 42 42 42 42 30 30 30 30 176 176 176 176 176 118 118 118 118 123 123 123
 123 57 57 57 57 163 163 42 42 42 42 42 42 40 40 40 40 176 176 176
 176 176 118 118 118 244 244 244 123 57 57 57 57 57 57 57 42 42 42 42
 42 27 40 40 40 40 6 6 6 6 6 6 244 244 244 244 244 57 57 57
 57 57 57 57 53 53 42 27 27 27 27 27 40 40 40 6 6 6 6 6
 6 244 244 244 244 206 206 206 206 57 57 57 53 53 53 53 27 27 27 27
 27 40 40 40 6 6 6 6 6 6 244 244 244 244 206 206 206 206 206 57
 53 53 53 53 236 27 27 27 27 27 95 95 168 168 168 6 6 6 141 102
 102 102 102 206 206 206 206 206 53 53 53 53 236 236 27 27 27 27 27 27
 168 168 168 168 168 168 168 102 102 102 102 102 115 206 206 206 206 53 53 53
 236 236 236 27 27 27 27 27 156 156 168 168 168 168 103 103 115 115 102 102
 102 115 115 206 206 206 121 121 121 121 121 236 236 27 27 27 156 156 156 156
 168 168 103 103 103 115 115 115 115 115 167 76 76 76 76 121 121 121 121 121
 121 121 116 116 156 156 156 156 156 156 103 103 103 103 115 115 115 115 115 167
 76 76 76 76 136 121 121 121 121 121 121 116 116 156 156 156 156 156 156 103
 103 103 103 167 167 167 167 167 167 76 76 76 76 136 136 217 217 121 121 121
 16 16 16 156 156 156 156 156 156 25 25 3 167 167 167 167 167 167 76 76
 76 76 136 217 217 217 217 217 217 16 16 16 23 156 25 25 25 25 25 25
 3 3 167 167 167 167 167 76 76 76 76 136 217 217 217 217 217 217 23 23
 23 23 23 25 25 25 25 25 3 3 3 3 167 167 167 167 76 76 76 76
 136 217 217 217 217 217 217 23 23 23 23 23 25 25 25 25 25 3 3 3
 3 3 3 167 235 235 76 76 76 136 217 217 217 217 217 23 23 23 23 23
 23 149 25 25 25 25 3 3 3 3 3 3 3 235 235 235 235 235 18 217
 217 217 217 23 23 23 23 23 23 23 149 149 25 25 193 105 3 3 3 3
 3 3 235 235 235 235 18 18 18 18 110 110 215 23 23 23 23 23 23 149
 149 193 193 193 193 3 3 3 3 3 235 235 235 235 235 235 18 18 110 110
 110 215 215 215 23 23 23 23 149 149 193 193 193 193 193 3 3 3 3 235
 235 235 235 235 18 18 18 110 110 187 215 215 215 187 12 12 12 12 12 193
 193 193 193 193 105 3 3 4 235 4 4 4 4 129 129 129 110 110 187 187
 215 187 187 12 12 12 12 12 193 193 193 193 193 94 94 94 4 4 4 4
 4 129 129 129 129 142 142 187 215 215 215 12 12 12 12 12 12 12 143 143
 143 94 94 94 94 4 4 4 170 170 129 129 129 142 142 142 142 142 215 12
 12 12 12 12 12 12 12 143 143 143 94 94 94 94 4 4 170 170 170 129
 129 129 142 142 142 142 142 142 12 12 12 12 12 12 12 12 26 26 26 94
 94 94 94 4 4 170 170 170 170 129 129 142 142 142 142 142 142 142 12 229
 229 229 12 12 26 26 26 26 58 58 58 58 58 170 123 123 123 123 171 171
 142 142 142 142 142 142 142 229 229 229 229 229 12 113 113 113 113 58 58 58
 58 28 28 123 123 123 123 171 163 163 163 142 142 142 142 142 229 229 229 229
 229 113 113 113 113 113 58 58 58 58 28 28 123 123 123 123 171 163 163 163
 163 163 142 142 42 229 229 229 229 229 113 113 113 113 113 58 58 58 58 28
 28 123 123 123 123 163 163 163 163 163 163 42 42 42 42 42 30 30 30 30
 113 113 113 113 58 58 58 58 58 28 123 123 123 123 163 163 163 163 163 163
 42 42 42 42 42 72 40 30 40 176 176 176 176 176 58 58 58 244 28 244
 123 57 57 57 57 163 163 163 42 42 42 42 42 42 40 40 40 40 40 176
 176 176 176 58 58 244 244 244 244 244 57 57 57 57 57 57 163 42 42 42
 42 42 42 40 40 40 40 40 6 6 6 6 244 244 244 244 244 244 244 57
 57 57 57 57 53 53 42 42 42 27 27 27 40 40 40 40 40 6 6 6
 6 6 244 244 244 244 244 206 206 206 57 57 57 53 53 165 165 27 27 27
 27 27 40 40 40 168 168 168 6 6 244 244 244 244 244 244 206 206 206 48
 48 53 53 53 53 165 27 27 27 27 27 95 95 95 168 168 168 168 168 244
 244 244 244 244 206 206 206 206 48 48 53 53 53 165 165 27 27 27 27 27
 95 95 168 168 168 168 168 168 115 115 115 244 115 115 206 206 206 48 48 121
 121 121 121 121 27 27 27 27 27 156 168 168 168 168 168 168 168 115 115 115
 115 115 115 115 76 76 76 121 121 121 121 121 121 121 27 27 27 156 156 156
 168 168 168 168 168 168 115 115 115 115 115 115 115 76 76 76 121 121 121 121
 121 121 121 121 27 156 156 156 156 156 168 168 168 168 168 115 115 115 115 115
 115 76 76 76 76 136 121 121 121 121 121 121 121 156 156 156 156 156 156 156
 168 168 103 103 115 115 115 115 115 115 76 76 76 76 136 136 217 217 217 121
 121 16 16 16 16 156 156 156 156 25 25 25 3 167 167 167 115 115 167 76
 76 76 76 136 217 217 217 217 217 16 16 16 16 16 156 25 25 25 25 25
 25 3 3 167 167 167 167 167 76 76 76 76 136 217 217 217 217 217 217 16
 16 16 23 25 25 25 25 25 25 25 3 3 3 3 167 167 167 76 76 76
 76 136 217 217 217 217 217 217 23 23 23 23 23 25 25 25 25 25 3 3
 3 3 3 3 3 235 235 76 76 76 136 217 217 217 217 217 23 23 23 23
 23 23 149 25 25 25 25 3 3 3 3 3 3 3 235 235 235 235 76 136
 217 217 217 217 215 23 23 23 23 23 23 149 149 9 25 25 179 3 3 3
 3 3 235 235 235 235 235 235 235 217 217 49 215 215 215 23 23 23 23 23
 149 9 9 193 193 179 179 179 3 3 3 235 235 235 235 235 235 235 235 49
 49 215 215 215 215 23 23 23 23 149 9 9 193 193 179 179 179 179 3 235
 235 235 235 235 235 235 235 49 49 187 187 215 215 215 187 12 12 12 12 12
 193 193 193 193 99 99 99 3 235 235 4 4 170 170 170 170 22 22 187 187
 187 187 187 187 12 12 12 12 12 143 143 143 99 99 99 94 94 4 4 4
 4 170 4 4 129 22 22 142 187 215 215 215 12 12 12 12 12 12 143 143
 143 143 143 94 94 94 94 4 4 4 4 4 4 129 142 142 142 142 142 215
 12 12 12 12 12 12 12 143 143 143 143 94 94 94 94 94 4 170 4 4
 4 4 129 142 142 142 142 142 142 12 12 12 12 12 12 12 143 143 143 143
 94 94 94 94 94 4 170 4 4 4 4 4 142 142 142 142 142 142 142 12
 12 12 12 12 12 113 113 113 113 58 58 58 58 28 170 170 4 4 4 4
 142 142 142 142 142 142 142 142 12 12 229 12 12 12 113 113 113 113 58 58
 58 58 28 28 123 123 123 123 163 163 163 163 142 142 142 142 142 12 229 229
 229 12 113 113 113 113 113 58 58 58 58 28 28 123 123 123 123 163 163 163
 163 163 163 142 142 42 223 223 229 229 12 113 113 113 113 113 58 58 58 58
 28 28 123 123 123 123 163 163 163 163 163 163 42 42 42 223 223 72 72 72
 113 113 113 113 113 58 58 58 58 28 28 244 123 123 163 163 163 163 163 163
 163 42 42 42 223 223 72 72 72 40 113 113 113 113 58 58 58 58 244 244
 244 244 244 57 57 163 163 163 163 42 42 42 42 223 223 72 72 40 40 40
 40 176 176 58 58 244 244 244 244 244 244 57 57 57 57 57 57 165 42 42