# vtk DataFile Version 2.0
Data set from ImportExport Version 6.5.171.b0b162591
ASCII

DATASET RECTILINEAR_GRID
DIMENSIONS 30 30 30
X_COORDINATES 30 float
-1.250000 1.250000 3.750000 6.250000 8.750000 11.250000 13.750000 16.250000 18.750000 21.250000 23.750000 26.250000 28.750000 31.250000 33.750000 36.250000 38.750000 41.250000 43.750000 46.250000 48.750000 
51.250000 53.750000 56.250000 58.750000 61.250000 63.750000 66.250000 68.750000 71.250000 
Y_COORDINATES 30 float
-1.250000 1.250000 3.750000 6.250000 8.750000 11.250000 13.750000 16.250000 18.750000 21.250000 23.750000 26.250000 28.750000 31.250000 33.750000 36.250000 38.750000 41.250000 43.750000 46.250000 48.750000 
51.250000 53.750000 56.250000 58.750000 61.250000 63.750000 66.250000 68.750000 71.250000 
Z_COORDINATES 30 float
-1.250000 1.250000 3.750000 6.250000 8.750000 11.250000 13.750000 16.250000 18.750000 21.250000 23.750000 26.250000 28.750000 31.250000 33.750000 36.250000 38.750000 41.250000 43.750000 46.250000 48.750000 
51.250000 53.750000 56.250000 58.750000 61.250000 63.750000 66.250000 68.750000 71.250000 
CELL_DATA 24389
SCALARS FeatureIds int 1
LOOKUP_TABLE default
 111 111 111 111 111 99 99 99 86 86 86 86 86 86 86 144 144 144 144 144
 144 144 144 207 207 207 207 200 111 111 111 111 111 111 99 99 99 86 86 86
 86 86 86 36 144 144 144 144 144 144 144 144 207 207 207 207 207 111 111 111
 111 111 111 99 99 99 99 86 86 86 86 36 36 144 144 144 144 144 144 144
 144 116 116 116 116 115 115 115 111 111 111 111 99 99 99 72 72 86 86 36
 36 36 36 144 144 144 144 144 144 144 116 116 116 116 115 115 115 115 115 115
 233 21 21 72 72 72 72 72 72 72 72 72 144 144 144 144 144 144 116 116
 116 116 116 115 115 115 115 115 233 233 21 21 21 72 72 72 72 72 72 72
 72 72 144 144 144 196 196 196 116 116 116 116 115 115 16 16 16 233 233 21
 21 21 21 72 72 72 72 72 72 72 72 196 196 196 196 196 196 196 116 116
 16 16 16 16 16 16 21 21 21 21 21 21 94 72 72 72 72 72 72 72
 196 196 196 196 196 196 196 196 116 16 16 16 16 16 21 21 21 21 21 21
 21 94 94 94 72 139 139 139 139 139 196 196 196 196 196 196 196 16 16 16
 16 102 102 17 21 21 21 21 21 21 94 94 94 139 139 139 139 139 139 73
 73 73 73 73 73 73 102 102 102 102 102 102 17 17 17 21 21 21 21 94
 94 94 139 139 139 139 139 139 73 73 73 73 73 73 73 102 102 102 102 102
 102 17 17 17 79 79 79 79 109 109 94 139 139 139 139 139 139 73 73 73
 73 73 73 73 102 102 102 102 102 102 17 17 17 79 79 79 79 109 109 83
 139 133 133 139 139 139 73 73 73 73 73 73 73 102 102 102 102 78 78 78
 17 17 79 79 83 83 83 83 83 83 133 133 236 236 236 73 73 73 73 73
 75 75 102 102 102 102 78 78 78 78 78 79 79 83 83 83 83 83 83 133
 236 236 236 236 174 73 73 73 75 75 75 75 102 102 102 78 78 78 78 78
 57 57 57 83 83 83 83 83 236 236 236 236 236 174 174 73 75 75 75 59
 59 59 170 170 170 78 78 78 241 57 57 57 57 57 83 83 105 105 236 236
 236 236 174 174 18 18 75 59 59 59 59 170 170 170 170 78 241 241 241 57
 57 57 57 57 105 105 105 105 105 157 157 157 18 18 18 18 59 59 59 59
 170 170 170 170 170 241 241 241 241 57 57 57 105 105 105 105 105 157 157 157
 157 18 18 18 18 59 59 59 59 170 170 170 170 170 241 241 241 241 164 164
 164 105 105 105 105 105 157 157 157 157 18 18 18 18 18 59 59 170 170 170
 22 22 22 241 241 241 241 164 164 164 105 105 105 105 105 157 157 157 157 18
 18 18 18 18 59 170 170 170 170 22 22 22 241 241 241 241 164 164 164 105
 105 105 105 105 157 157 157 157 18 18 18 18 18 59 170 170 170 170 131 131
 131 131 241 241 241 190 38 38 225 225 225 225 225 225 225 225 225 18 18 18
 18 18 200 200 170 131 131 131 131 131 131 131 190 190 38 38 38 38 225 225
 225 225 225 225 225 225 32 18 18 200 200 200 200 200 131 131 61 61 61 131
 131 131 38 38 38 38 38 225 225 225 225 225 225 225 225 144 200 200 200 200
 200 200 200 200 131 61 61 61 61 61 61 38 38 38 38 38 145 145 145 145
 145 145 145 144 144 144 200 200 200 200 200 200 200 61 61 61 61 61 61 61
 38 38 38 38 38 145 145 145 145 145 145 144 144 144 144 200 200 200 200 200
 200 200 61 61 61 61 61 61 229 38 38 38 38 38 145 145 145 145 145 144
 144 144 144 144 144 200 200 200 200 200 200 200 111 111 111 111 111 229 99 38
 38 38 86 86 145 145 145 144 144 144 144 144 144 144 200 200 200 200 200 200
 111 111 111 111 111 111 99 99 99 99 86 86 86 86 36 36 144 144 144 144
 144 144 144 144 207 207 207 207 200 111 111 111 193 193 193 99 99 99 99 86
 86 86 36 36 36 144 144 144 144 144 144 144 144 207 207 207 207 207 111 111
 111 193 193 193 99 99 99 99 99 86 36 36 36 36 36 144 144 144 144 144
 144 144 116 116 116 116 116 111 115 111 193 193 193 99 99 99 99 99 60 36
 36 36 36 36 144 144 144 144 144 144 144 116 116 116 116 116 115 115 115 193
 193 233 233 21 99 72 72 60 60 36 36 36 36 144 144 144 144 144 144 116
 116 116 116 116 116 115 115 115 233 233 233 233 21 21 72 72 72 72 72 72
 72 72 72 144 144 196 196 196 196 116 116 116 116 116 115 16 16 233 233 233
 233 21 21 21 94 72 72 72 72 72 72 72 196 196 196 196 196 196 196 116
 116 116 16 16 16 16 233 233 233 233 21 21 94 94 94 72 72 72 72 139
 139 93 196 196 196 196 196 196 116 116 16 16 16 16 16 21 21 21 21 21
 21 94 94 94 94 94 139 139 139 139 93 196 196 196 196 196 196 196 16 16
 16 16 102 102 17 71 71 21 21 21 21 94 94 94 139 139 139 139 139 139
 196 196 196 196 196 196 196 102 102 102 102 102 102 17 71 71 21 21 21 21
 94 94 94 139 139 139 139 139 139 73 73 73 73 73 73 73 102 102 102 102
 102 102 17 17 71 79 79 79 79 109 109 94 139 139 139 139 139 139 73 73
 73 73 73 75 75 102 102 102 102 102 78 17 17 17 79 79 79 79 109 109
 109 139 139 139 139 139 139 73 73 73 75 75 75 75 102 102 102 102 78 78
 78 78 79 79 79 79 79 109 109 109 139 133 236 236 236 174 174 174 75 75
 75 75 75 75 102 102 102 78 78 78 78 78 79 79 83 83 83 83 83 83
 236 236 236 236 174 174 174 75 75 75 75 75 75 102 78 78 78 78 78 78
 78 78 57 57 57 83 83 83 236 236 236 236 236 174 174 174 174 75 75 75
 59 59 59 170 78 170 78 78 78 78 57 57 57 57 57 57 105 105 105 236
 236 236 174 174 174 174 75 75 59 59 59 59 170 170 170 170 78 78 241 241
 57 57 57 57 57 105 105 105 105 105 157 157 174 18 18 18 18 59 59 59
 59 170 170 170 170 78 241 241 241 241 57 57 57 105 105 105 105 105 157 157
 157 157 18 18 18 18 59 59 59 170 170 170 170 170 170 241 241 241 241 241
 164 105 105 105 105 105 105 157 157 157 157 18 18 18 18 18 59 170 170 170
 170 170 170 22 241 241 241 241 241 164 105 105 105 105 105 105 157 157 157 157
 18 18 18 18 18 59 170 170 170 170 22 22 22 241 241 241 241 241 190 190
 105 105 105 105 105 157 157 157 157 18 18 18 18 18 59 170 170 170 170 131
 131 131 131 241 190 190 190 190 190 225 225 225 225 225 225 225 225 32 18 18
 18 18 18 12 12 12 170 131 61 61 61 61 61 190 190 190 190 190 225 225
 225 225 225 225 225 225 225 32 18 18 200 200 12 12 12 12 131 61 61 61
 61 61 190 190 190 190 7 225 225 225 225 225 225 225 225 20 20 20 200 200
 200 12 12 12 12 61 61 61 61 61 61 229 190 190 7 7 7 145 145 145
 145 145 225 20 20 20 20 20 200 200 200 200 200 200 61 61 61 61 61 61
 229 229 38 38 7 38 145 145 145 145 145 145 20 20 20 20 20 200 200 200
 200 200 200 61 61 61 61 61 61 229 229 38 38 38 38 145 145 145 145 145
 145 20 20 20 20 20 200 200 200 200 200 200 200 111 111 111 111 111 229 99
 99 38 38 86 86 145 145 145 145 144 144 144 144 144 144 200 200 200 200 200
 200 111 111 193 193 193 193 99 99 99 99 99 86 86 36 36 63 63 63 63
 176 176 176 176 176 207 207 207 200 200 111 193 193 193 193 193 99 99 99 99
 99 86 36 36 36 36 63 63 63 176 176 176 176 176 207 207 207 207 207 111
 193 193 193 193 193 99 99 99 99 99 99 36 36 36 36 36 63 63 176 176
 176 176 176 116 116 116 116 116 193 193 193 193 193 193 99 99 99 99 99 60
 36 36 36 36 36 176 176 176 176 176 176 176 116 116 116 116 116 193 193 193
 193 193 233 233 233 99 99 60 60 60 36 36 36 36 176 176 176 176 176 176
 116 116 116 116 116 116 116 193 193 233 233 233 233 233 233 60 60 60 60 60
 60 36 36 176 176 176 172 172 172 172 116 116 116 116 116 116 16 233 233 233
 233 233 233 233 160 60 60 60 60 60 72 72 93 172 172 172 172 172 172 172
 116 116 116 116 16 16 233 233 233 233 233 233 21 94 94 94 60 60 60 139
 139 93 93 172 172 172 172 172 172 172 116 16 16 16 102 71 71 71 71 71
 21 21 94 94 94 94 139 139 139 139 93 93 93 172 172 172 172 172 172 102
 102 102 102 102 102 71 71 71 71 21 21 94 94 94 94 139 139 139 139 139
 93 93 172 172 172 172 172 172 102 102 102 102 102 102 71 71 71 71 21 21
 21 94 94 94 139 139 139 139 139 93 231 231 73 73 75 75 102 102 102 102
 102 102 102 71 71 71 71 79 79 79 109 109 94 139 139 139 139 139 139 73
 73 75 75 75 75 75 102 102 102 102 102 78 78 78 71 79 79 79 79 109
 109 109 139 139 139 139 139 139 174 75 75 75 75 75 75 75 102 102 102 78
 78 78 78 78 79 79 79 79 109 109 109 139 139 236 236 236 174 174 174 75
 75 75 75 75 75 102 102 78 78 78 78 78 78 78 177 177 83 83 83 83
 236 236 236 236 236 174 174 174 75 75 75 75 75 75 75 78 78 78 78 78
 78 78 177 177 177 57 177 83 83 236 236 236 236 236 174 174 174 174 75 75
 75 75 59 59 170 78 78 78 78 78 78 78 57 57 57 57 57 105 105 105
 236 236 236 174 174 174 174 75 75 75 59 59 59 170 170 170 78 78 78 241
 241 57 57 57 57 57 105 105 105 105 105 37 37 37 174 18 18 18 59 59
 59 170 170 170 170 170 78 241 241 241 241 57 57 57 105 105 105 105 105 157
 157 37 37 18 18 18 18 59 59 59 170 170 170 170 170 78 241 241 241 241
 241 57 57 105 105 105 105 105 157 157 157 37 18 18 18 18 18 59 170 170
 170 170 170 170 241 241 241 241 241 241 241 105 105 105 105 105 105 157 157 157
 157 18 18 18 18 18 59 170 170 170 170 170 170 241 241 241 241 241 190 190
 190 105 105 105 105 105 157 157 157 32 32 18 18 18 18 59 170 170 170 170
 131 131 131 131 241 190 190 190 190 190 225 225 225 225 225 225 225 225 32 32
 32 18 18 18 12 12 12 170 170 61 61 61 61 229 190 190 190 190 190 225
 225 225 225 225 225 225 225 32 32 32 32 12 12 12 12 12 12 61 61 61
 61 61 229 229 190 190 190 7 7 225 225 225 225 225 225 225 20 20 20 20
 12 12 12 12 12 12 61 61 61 61 61 229 229 229 190 7 7 7 145 145
 145 145 145 145 20 20 20 20 20 12 12 12 12 12 12 61 61 61 61 61
 229 229 229 229 7 7 7 145 145 145 145 145 145 20 20 20 20 20 200 200
 200 200 200 200 61 61 61 61 61 229 229 229 99 7 7 7 145 145 145 145
 145 20 20 20 20 20 20 200 200 200 200 200 200 200 111 111 193 193 229 229
 99 99 99 7 86 145 145 145 145 63 63 176 20 20 20 176 200 200 200 200
 200 200 200 193 193 193 193 155 155 99 99 99 99 99 36 36 36 63 63 63
 63 176 176 176 176 176 207 200 200 200 200 193 193 193 193 193 155 155 99 99
 99 99 99 36 36 36 36 63 63 63 176 176 176 176 176 207 207 207 207 207
 193 193 193 193 193 155 155 99 99 99 99 99 36 36 36 36 36 63 63 176
 176 176 176 176 116 116 116 116 116 193 193 193 193 193 155 155 99 99 99 99
 60 36 36 36 36 36 63 176 176 176 176 176 176 116 116 116 116 116 193 193
 193 193 193 233 233 159 159 159 60 60 60 36 36 36 36 63 176 176 176 176
 176 176 116 116 116 116 116 116 193 193 233 233 233 233 233 159 159 60 60 60
 60 60 36 36 63 176 175 175 172 172 172 116 116 116 116 116 116 193 233 233
 233 233 233 233 160 160 60 60 60 60 60 36 93 93 175 175 175 172 172 172
 172 116 116 116 116 116 16 233 233 233 233 233 233 160 160 160 60 60 60 60
 93 93 93 93 175 175 172 172 172 172 172 116 116 102 102 102 71 71 71 71
 71 71 21 94 94 94 94 139 139 93 93 93 93 231 231 172 172 172 172 172
 102 102 102 102 102 71 71 71 71 46 71 21 94 94 94 94 139 139 139 93
 93 93 231 231 231 172 172 172 172 102 102 102 102 102 102 71 71 71 71 71
 21 21 94 94 94 139 139 139 139 93 93 231 231 231 231 75 75 75 240 240
 240 240 240 240 78 71 71 71 71 79 79 109 94 94 139 139 139 139 139 93
 231 75 75 75 75 75 75 240 240 240 240 78 78 78 78 71 79 79 79 79
 109 109 109 139 139 139 139 139 174 75 75 75 75 75 75 75 75 240 240 240
 78 78 78 78 78 177 177 177 177 109 109 109 139 139 139 236 174 174 174 174
 75 75 75 75 75 75 75 240 78 78 78 78 78 78 177 177 177 177 177 177
 177 180 236 236 236 174 174 174 174 75 75 75 75 75 75 75 78 78 78 78
 78 78 78 177 177 177 177 177 177 180 180 180 236 236 37 174 174 174 174 75
 75 75 75 169 169 78 78 78 78 78 78 78 177 177 177 177 177 177 180 180
 180 180 236 37 37 174 174 174 75 75 75 169 169 169 170 170 170 78 78 78
 78 241 57 57 57 57 180 180 180 180 180 180 37 37 37 37 174 75 75 169
 169 169 169 170 170 170 170 78 241 241 241 241 57 57 57 180 180 180 180 180
 180 37 37 37 37 18 18 18 169 169 169 169 170 170 170 170 78 241 241 241
 241 241 57 57 105 105 105 105 105 157 37 37 37 18 18 18 18 18 169 169
 170 170 170 170 170 121 241 241 241 241 241 190 190 105 105 105 105 105 157 157
 37 26 18 18 18 18 18 169 170 170 170 170 170 170 121 121 241 241 182 182
 190 190 105 105 225 225 225 225 157 32 32 32 32 18 18 18 169 170 170 170
 170 131 121 121 121 190 190 190 182 190 190 190 225 225 225 225 225 225 32 32
 32 32 32 18 12 12 12 12 12 12 61 61 61 229 229 190 190 182 190 190
 7 225 225 225 225 225 225 32 32 32 32 32 12 12 12 12 12 12 12 61
 61 61 229 229 229 190 182 190 7 7 7 225 225 225 225 225 32 32 32 32
 32 12 12 12 12 12 12 61 61 61 61 229 229 229 229 182 7 7 7 7
 145 145 145 145 145 20 20 20 20 20 12 12 12 12 12 12 61 61 61 61
 229 229 229 229 229 7 7 7 7 145 145 145 145 20 20 20 20 20 20 20
 12 12 12 12 12 61 61 61 61 229 229 229 229 229 7 7 7 130 145 145
 145 130 20 20 20 20 20 20 20 200 200 200 200 200 200 193 193 193 229 229
 229 99 99 99 7 7 130 130 130 130 63 63 176 20 20 20 176 176 200 200
 200 200 200 200 193 193 193 193 155 155 155 99 99 99 99 130 130 130 130 85
 85 85 176 176 176 176 176 176 200 200 200 200 193 193 193 193 193 155 155 155
 99 99 99 99 36 36 36 36 85 85 85 176 176 176 176 176 176 207 207 207
 193 193 193 193 193 193 155 155 155 99 99 99 36 36 36 36 36 36 85 85
 176 176 176 176 176 55 55 55 55 55 193 193 193 193 193 155 155 155 99 99
 60 60 36 36 36 36 36 85 85 176 176 176 176 176 55 55 55 55 55 55
 193 193 193 193 155 155 159 159 159 60 60 60 36 36 36 36 85 176 176 176
 176 176 55 55 55 55 55 55 55 193 193 11 11 233 233 159 159 159 60 60
 60 60 36 36 36 175 175 175 175 172 172 172 55 55 55 55 55 55 11 11
 11 11 233 233 160 160 160 160 60 60 60 60 110 110 175 175 175 175 172 172
 172 172 55 55 55 55 55 11 11 11 11 233 233 160 160 160 160 160 60 60
 60 93 93 93 93 175 175 172 172 172 172 55 55 55 55 55 11 11 11 11
 71 71 160 160 160 160 94 94 60 139 93 93 93 93 231 231 231 172 172 172
 172 2 2 2 102 11 11 11 11 71 71 71 160 160 94 94 94 139 139 93
 93 93 93 231 231 231 231 172 172 2 2 2 102 102 87 87 11 71 71 71
 71 21 21 94 94 94 139 139 93 93 93 93 231 231 231 231 75 75 75 2
 240 240 240 240 78 87 71 71 71 71 21 21 109 94 94 139 139 139 93 93
 93 231 231 231 75 75 75 75 75 240 240 240 78 78 78 78 71 71 79 79
 79 109 109 109 139 139 139 139 93 174 231 75 75 75 75 75 75 75 240 240
 240 78 78 78 78 78 177 177 177 177 177 177 95 180 139 139 236 174 174 174
 174 75 75 75 75 75 75 75 240 78 78 78 78 78 78 177 177 177 177 177
 177 180 180 180 180 236 174 174 174 174 75 75 75 75 75 75 75 78 78 78
 78 78 78 78 177 177 177 177 177 177 180 180 180 180 37 37 37 174 174 174
 75 75 75 75 75 169 78 78 78 78 78 78 78 177 177 177 177 177 177 180
 180 180 180 180 37 37 37 174 174 75 75 75 169 169 169 170 78 78 78 78
 78 78 177 177 177 177 177 180 180 180 180 180 180 37 37 37 37 174 75 75
 169 169 169 169 170 170 170 78 78 78 241 241 241 57 57 177 180 180 180 180
 180 180 37 37 37 37 18 18 18 169 169 169 169 170 170 170 170 121 121 241
 241 241 241 57 177 180 180 180 180 180 180 37 37 37 37 18 18 18 169 169
 169 170 170 170 170 121 121 121 121 241 241 190 190 190 105 105 105 105 105 180
 37 26 26 26 18 18 18 18 169 169 170 170 170 170 121 121 121 121 121 190
 190 190 190 190 105 225 225 225 225 32 32 32 32 32 32 18 18 169 169 170
 170 170 151 121 121 121 121 229 190 190 190 190 190 225 225 225 225 225 32 32
 32 32 32 32 32 12 12 12 12 12 151 151 151 229 229 229 229 190 190 190
 190 7 225 225 225 225 225 32 32 32 32 32 32 32 12 12 12 12 12 12
 61 61 229 229 229 229 229 190 190 7 7 7 225 225 225 225 32 32 32 32
 32 32 32 12 12 12 12 12 12 61 61 229 229 229 229 229 229 7 7 7
 7 130 130 130 145 145 32 32 32 32 32 12 12 12 12 12 12 12 61 61
 229 229 229 229 229 229 7 7 7 130 130 130 130 130 20 20 20 20 20 20
 20 12 12 12 12 12 12 193 193 229 229 229 229 229 229 7 7 130 130 130
 130 130 130 130 20 20 20 20 20 20 12 12 12 12 200 200 193 193 193 229
 229 155 229 99 99 7 130 130 130 130 130 130 85 85 176 20 176 176 176 200
 200 200 200 200 200 193 193 193 155 155 155 155 155 99 99 130 130 130 130 130
 85 85 85 85 176 176 176 176 112 112 112 112 112 193 193 193 193 155 155 155
 155 99 99 99 130 130 130 130 130 85 85 85 85 176 176 176 176 112 112 112
 112 112 193 193 193 193 155 155 155 155 155 99 99 36 36 36 36 36 85 85
 85 85 176 176 176 176 55 55 55 55 55 55 193 193 193 155 155 155 149 159
 159 159 60 36 36 36 36 36 85 85 85 176 176 176 176 55 55 55 55 55
 55 193 193 193 11 149 149 159 159 159 159 60 60 110 110 110 110 85 85 176
 176 176 176 55 55 55 55 55 55 55 193 11 11 11 11 159 159 159 159 159
 60 60 110 110 110 110 110 175 175 175 175 172 172 55 55 55 55 55 55 11
 11 11 11 11 11 160 160 160 160 60 60 110 110 110 110 110 175 175 175 175
 172 172 55 55 55 55 55 55 11 11 11 11 11 11 160 160 160 160 160 60
 110 110 110 93 93 175 175 175 175 172 172 2 2 2 2 2 2 11 11 11
 11 11 11 160 160 160 160 160 160 110 110 93 93 93 93 231 231 231 231 172
 2 2 2 2 2 2 87 87 11 11 11 11 160 160 160 160 160 160 168 93
 93 93 93 93 231 231 231 231 231 2 2 2 2 2 2 87 87 87 11 11
 71 71 160 160 94 94 168 168 139 93 93 93 231 231 231 231 231 231 2 2
 2 2 2 240 87 87 87 87 71 71 71 21 21 109 94 168 168 139 89 89
 89 231 231 231 231 75 75 75 75 2 2 240 240 87 87 87 87 71 177 177
 177 177 177 177 95 168 89 89 89 89 202 231 75 75 75 75 75 75 75 240
 240 240 78 34 34 78 177 177 177 177 177 177 177 95 95 180 89 202 202 202
 174 75 75 75 75 75 75 75 75 78 78 78 78 78 78 177 177 177 177 177
 177 177 180 180 180 180 37 37 37 174 174 75 75 75 75 75 75 75 78 78
 78 78 78 78 177 177 177 177 177 177 177 180 180 180 180 37 37 37 37 174
 75 75 75 75 75 75 169 78 78 78 78 78 78 78 177 177 177 177 177 177
 180 180 180 180 180 37 37 37 37 174 75 75 75 75 169 169 78 78 78 78
 78 78 78 177 177 177 177 177 180 180 180 180 180 180 37 37 37 37 174 75
 75 169 169 169 169 170 170 170 78 78 78 78 177 177 177 177 177 180 180 180
 180 180 180 37 37 37 26 26 26 18 169 169 169 169 170 170 170 121 121 121
 121 121 241 177 177 177 180 180 180 180 180 180 37 26 26 26 26 26 26 169
 169 169 170 170 170 170 121 121 121 121 121 241 190 190 190 127 127 127 127 127
 180 26 26 26 26 26 26 26 129 169 169 170 170 170 151 121 121 121 121 121
 190 190 190 190 33 33 127 127 127 180 26 26 32 32 32 32 32 129 129 12
 67 67 151 151 151 121 121 121 229 229 190 190 190 33 33 33 225 225 225 32
 32 32 32 32 32 32 32 12 12 12 151 151 151 151 151 229 229 229 229 190
 190 190 33 33 33 225 225 225 32 32 32 32 32 32 32 12 12 12 12 12
 151 151 151 151 229 229 229 229 229 229 7 33 33 130 130 130 130 32 32 32
 32 32 32 32 12 12 12 12 12 151 151 151 229 229 229 229 229 229 229 7
 130 130 130 130 130 130 130 32 32 32 32 32 12 12 12 12 12 12 12 151
 151 229 229 229 229 229 229 229 7 130 130 130 130 130 130 130 20 20 20 20
 20 12 12 12 12 12 12 12 193 193 229 229 229 229 229 229 229 229 130 130
 130 130 130 130 130 20 20 20 20 20 20 12 12 12 12 200 200 193 193 193
 229 155 155 155 229 229 229 130 130 130 130 130 130 85 85 85 176 176 176 176
 112 112 112 112 200 200 193 193 193 155 155 155 155 155 155 155 130 130 130 130
 130 130 85 85 85 85 176 176 176 112 112 112 112 112 112 124 124 193 155 155
 155 155 155 99 99 130 130 130 130 130 85 85 85 85 85 176 176 176 112 112
 112 112 112 112 193 124 193 149 149 149 155 155 155 155 130 130 110 110 110 85
 85 85 85 85 176 176 112 112 112 112 55 55 55 124 124 149 149 149 149 149
 149 159 159 110 110 110 110 110 110 85 85 85 85 176 176 55 55 55 55 55
 55 55 124 124 149 149 149 149 149 159 159 159 60 110 110 110 110 110 110 85
 85 175 175 176 55 55 55 55 55 55 55 11 11 11 11 11 149 159 159 159
 160 110 110 110 110 110 110 110 175 175 175 175 175 55 55 55 55 55 55 55
 11 11 11 11 11 11 160 160 160 160 60 110 110 110 110 110 110 175 175 175
 175 175 172 55 55 55 55 55 55 11 11 11 11 11 11 160 160 160 160 160
 110 110 110 110 110 93 175 175 175 175 175 172 2 2 2 2 2 2 87 11
 11 11 11 11 160 160 160 160 160 168 110 110 110 93 93 231 231 231 175 231
 2 2 2 2 2 2 2 87 87 11 11 11 11 160 160 160 160 160 168 168
 110 93 93 93 231 231 231 231 231 2 2 2 2 2 2 2 87 87 87 11
 11 11 71 160 160 160 168 168 168 168 89 89 89 231 231 231 231 231 2 2
 2 2 2 2 87 87 87 87 87 11 11 71 21 160 168 168 168 168 89 89
 89 89 231 231 231 231 75 75 75 2 2 2 2 87 87 87 87 87 87 177
 177 177 177 177 95 95 168 89 89 89 89 202 202 202 75 75 75 75 75 75
 2 2 87 34 34 34 34 34 177 177 177 177 177 95 95 95 89 89 202 202
 202 202 202 75 75 75 75 75 75 75 34 34 34 34 34 34 177 177 177 177
 177 177 95 95 95 95 180 202 202 202 202 202 75 75 75 75 75 75 75 78
 78 78 78 78 78 177 177 177 177 177 177 95 95 95 180 180 180 37 37 37
 24 24 24 24 75 75 75 75 78 78 78 78 78 78 177 177 177 177 177 177
 95 180 180 180 180 180 37 37 37 37 24 24 24 24 24 169 169 78 78 78
 78 78 78 147 177 177 177 177 177 180 180 180 180 180 180 37 37 37 37 24
 24 24 24 24 169 169 67 67 67 147 147 147 147 147 177 177 177 177 180 180
 180 180 180 180 37 26 26 26 26 26 24 24 169 169 169 67 67 67 147 121
 147 147 147 222 222 222 222 127 127 127 127 127 180 26 26 26 26 26 26 26
 129 129 67 67 67 67 151 121 121 121 121 121 222 222 222 222 127 127 127 127
 127 127 26 26 26 26 26 26 26 129 129 67 67 67 67 151 151 121 121 121
 121 229 136 136 33 33 33 127 127 127 127 26 26 26 26 26 26 129 129 129
 129 67 67 151 151 151 151 121 121 229 229 136 136 33 33 33 33 76 76 76
 32 32 32 32 32 32 32 129 129 129 67 151 151 151 151 151 151 229 229 229
 229 136 33 33 33 33 76 76 76 32 32 32 32 32 32 32 129 12 12 12
 151 151 151 151 151 229 229 229 229 229 229 33 33 33 33 130 130 130 32 32
 32 32 32 32 32 12 12 12 12 151 151 151 151 151 229 229 229 229 229 229
 7 130 130 130 130 130 130 130 32 32 32 32 32 32 12 12 12 12 12 151
 151 151 229 229 229 229 229 229 229 229 130 130 130 130 130 130 130 130 20 20
 20 20 12 12 12 12 12 12 151 151 52 229 229 229 229 229 229 229 130 130
 130 130 130 130 130 130 130 20 20 20 20 20 12 12 12 112 112 112 52 52
 229 229 229 155 229 229 39 130 130 130 130 130 130 130 85 85 85 176 176 176
 176 112 112 112 112 112 112 52 52 52 52 155 155 155 39 39 39 130 130 130
 130 130 130 85 85 85 212 212 212 212 112 112 112 112 112 112 124 124 52 52
 149 149 155 155 39 39 130 130 130 130 130 130 85 85 85 212 212 212 212 112
 112 112 112 112 124 124 124 52 149 149 149 149 149 149 197 197 197 110 110 110
 85 85 85 85 212 212 212 212 112 112 112 112 112 124 124 124 52 149 149 149
 149 149 149 197 197 197 110 110 110 110 85 85 85 212 212 212 55 55 55 55
 55 55 55 124 124 52 149 149 149 149 149 159 159 110 110 110 110 110 110 110
 85 85 212 212 120 55 55 55 55 55 55 55 124 11 11 11 11 149 149 159
 160 160 110 110 110 110 110 110 110 98 175 175 175 120 55 55 55 55 55 55
 55 11 11 11 11 11 11 160 160 160 160 110 110 110 110 110 110 110 98 175
 175 175 120 120 55 55 55 55 55 55 11 11 11 11 11 11 160 160 160 160
 160 110 110 110 110 110 98 98 175 175 175 120 120 2 2 2 2 2 2 87
 11 11 11 11 11 160 160 160 160 168 168 168 110 110 110 93 231 231 231 175
 120 120 2 2 2 2 2 2 87 87 87 11 11 11 160 160 160 160 168 168
 168 168 89 89 89 231 231 231 231 231 2 2 2 2 2 2 2 87 87 87
 87 11 11 160 160 160 168 168 168 168 168 89 89 89 231 231 231 231 231 2
 2 2 2 2 2 87 87 87 87 87 11 11 160 160 168 168 168 168 168 168
 89 89 89 202 231 231 231 75 2 2 2 2 2 2 87 87 87 87 87 87
 177 177 177 177 95 28 28 168 168 89 89 89 202 202 202 24 75 75 75 2
 2 2 2 87 34 34 34 34 34 177 177 177 177 95 95 95 28 28 89 202
 202 202 202 202 24 24 24 24 24 75 75 34 34 34 34 34 34 34 177 177
 177 177 95 95 95 95 95 202 202 202 202 202 24 24 24 24 24 24 75 75
 34 34 34 34 34 34 177 177 177 177 177 95 95 95 95 180 180 202 202 202
 24 24 24 24 24 24 24 24 24 78 78 43 43 43 147 177 177 177 177 177
 95 95 95 180 180 180 180 37 37 24 24 24 24 24 24 24 24 67 67 67
 67 147 147 147 147 147 177 177 177 177 180 180 180 180 180 180 26 26 26 24
 24 24 24 24 24 67 67 67 67 67 147 147 147 147 147 222 222 222 222 127
 127 127 127 180 180 26 26 26 26 26 24 24 24 24 67 67 67 67 67 147
 147 147 147 147 222 222 222 222 127 127 127 127 127 180 26 26 26 26 26 26
 129 129 129 67 67 67 67 67 147 147 147 147 147 222 222 222 222 127 127 127
 127 127 127 26 26 26 26 26 26 129 129 129 67 67 67 67 151 151 151 147
 147 147 136 136 136 136 127 127 127 127 76 76 26 26 26 26 26 26 129 129
 129 129 67 67 67 151 151 151 151 121 136 136 136 136 136 33 33 33 76 76
 76 26 26 26 32 32 32 129 129 129 129 67 67 151 151 151 151 151 229 229
 136 136 136 136 33 33 33 76 76 76 76 32 32 32 32 32 129 129 129 129
 67 151 151 151 151 151 151 229 229 229 136 136 136 33 33 33 76 76 76 76
 32 32 32 32 32 129 129 129 12 12 151 151 151 151 151 229 229 229 229 229
 39 39 130 130 130 130 130 130 130 130 32 32 32 32 74 12 12 12 12 12
 151 151 151 229 229 229 229 229 39 39 39 130 130 130 130 130 130 130 130 32
 32 32 44 74 12 12 12 12 12 151 52 52 229 229 229 229 39 39 39 39
 130 130 130 130 130 130 130 130 85 212 212 44 44 112 112 112 112 112 112 52
 52 52 229 229 39 39 39 39 39 130 130 130 130 130 130 130 85 85 212 212
 212 44 112 112 112 112 112 112 52 52 52 52 155 39 39 39 39 39 130 130
 130 130 130 130 130 212 212 212 212 44 44 112 112 112 112 112 52 124 124 52
 52 149 149 39 39 39 39 197 197 130 130 130 130 130 212 212 212 212 212 44
 112 112 112 112 112 124 124 124 52 52 149 149 149 149 149 197 197 197 197 110
 110 130 85 212 212 212 212 212 212 112 112 112 112 112 124 52 52 52 149 149
 149 149 149 149 197 197 197 197 110 110 110 85 212 212 212 212 212 55 55 55
 55 55 55 55 52 52 52 149 149 149 149 149 149 197 197 197 110 110 110 110
 110 98 98 212 212 120 55 55 55 55 55 55 55 138 52 11 149 149 149 149
 149 160 110 110 110 110 110 110 110 98 98 98 98 120 120 120 55 55 55 55
 55 55 138 11 11 11 11 11 160 160 160 160 110 110 110 110 110 110 98 98
 98 98 120 120 120 120 55 55 55 138 138 138 11 11 11 11 11 160 160 160
 160 110 110 110 110 110 110 98 98 98 98 120 120 120 120 2 2 2 138 138
 87 87 11 11 11 11 160 160 160 168 168 168 168 168 168 110 98 98 98 98
 120 120 120 2 2 2 2 2 2 87 87 87 11 11 11 160 160 160 168 168
 168 168 168 168 89 89 231 231 231 120 120 120 2 2 2 2 2 2 87 87
 87 87 11 11 150 150 168 168 168 168 168 168 89 89 89 231 231 231 231 120
 2 2 2 2 2 2 87 87 87 87 87 87 11 150 150 168 168 168 168 168
 168 89 89 89 202 202 231 24 24 2 2 2 2 2 2 87 34 34 34 119
 119 150 150 150 150 28 28 28 28 168 89 89 89 202 202 24 24 24 24 24
 2 2 2 2 34 34 34 34 34 34 177 177 177 177 28 28 28 28 28 89
 202 202 202 202 24 24 24 24 24 24 2 2 34 34 34 34 34 34 34 177
 177 177 177 95 95 95 95 28 27 202 202 202 202 24 24 24 24 24 24 24
 24 34 34 43 43 43 43 177 177 177 177 177 95 95 95 95 180 180 27 202
 202 24 24 24 24 24 24 24 24 24 67 43 43 43 43 147 147 177 177 177
 177 95 95 95 95 180 180 29 29 29 24 24 24 24 24 24 24 24 67 67
 67 67 43 147 147 147 147 222 222 222 222 95 180 180 180 180 29 29 29 29
 24 24 24 24 24 24 67 67 67 67 67 147 147 147 147 147 222 222 222 222
 222 127 127 127 127 29 29 26 26 26 26 24 24 24 24 67 67 67 67 67
 147 147 147 147 147 222 222 222 222 222 127 127 127 127 29 26 26 26 26 26
 26 129 129 129 67 67 67 67 67 147 147 147 147 147 222 222 222 222 222 127
 127 127 127 127 26 26 26 26 26 26 129 129 129 67 67 67 67 151 151 147
 147 147 147 136 136 136 136 221 221 76 76 76 76 26 26 26 26 26 129 129
 129 129 129 67 67 67 151 151 151 151 136 136 136 136 136 136 221 221 76 76
 76 76 26 26 26 26 26 129 129 129 129 129 67 67 151 151 151 151 151 136
 136 136 136 136 136 221 33 76 76 76 76 76 26 32 32 32 129 129 129 129
 129 67 67 151 151 151 151 151 229 136 136 136 136 136 221 221 76 76 76 76
 76 32 32 32 32 32 129 129 129 129 151 151 151 151 151 151 151 229 229 39
 39 39 39 130 130 130 130 130 130 130 130 32 32 32 74 74 74 74 74 12
 151 151 151 151 151 229 229 39 39 39 39 39 130 130 130 130 130 130 130 130
 44 44 44 44 74 74 74 74 112 151 151 52 52 52 229 229 39 39 39 39
 39 130 130 130 130 130 130 130 130 44 44 44 44 44 44 112 112 112 112 52
 52 52 52 52 39 39 39 39 39 39 130 130 130 130 130 130 130 85 212 212
 44 44 44 44 112 112 112 112 52 52 52 52 52 52 39 39 39 39 39 39
 130 130 130 130 130 130 212 212 212 44 44 44 112 112 112 112 112 52 52 52
 52 52 149 39 39 39 39 39 197 197 197 130 130 130 212 212 212 212 212 44
 44 112 112 112 112 112 52 52 52 52 52 149 149 149 39 39 197 197 197 197
 197 130 130 212 212 212 212 212 212 44 112 112 112 112 112 52 52 52 52 52
 149 149 149 149 197 197 197 197 197 197 110 110 212 212 212 212 212 212 44 112
 112 112 55 55 52 52 52 52 52 149 149 149 149 197 197 197 197 197 110 110
 110 98 98 98 212 212 120 120 55 55 55 55 55 138 138 138 52 149 149 149
 149 149 197 197 197 197 110 110 110 110 98 98 98 98 120 120 120 120 55 138
 138 138 138 138 138 11 11 11 11 160 160 160 184 184 110 110 110 110 110 31
 98 98 98 120 120 120 120 120 138 138 138 138 138 138 119 11 11 11 160 160
 160 184 184 184 110 110 110 31 31 98 98 98 120 120 120 120 2 138 138 138
 138 138 119 119 119 11 11 160 160 168 168 168 168 168 168 168 31 31 31 98
 98 120 120 120 120 2 2 138 138 138 119 119 119 119 119 11 150 150 168 168
 168 168 168 168 168 31 31 31 31 98 120 120 120 2 2 2 2 138 138 119
 119 119 119 119 150 150 150 150 168 168 168 168 168 168 89 89 31 31 218 218
 218 218 2 2 2 2 2 119 119 119 119 119 119 150 150 150 150 168 168 168
 168 168 168 89 89 202 202 218 218 218 218 2 2 2 2 119 119 119 119 119
 119 119 150 150 150 150 28 28 28 28 168 168 27 27 202 202 24 24 24 24
 24 24 2 2 119 119 119 119 119 119 119 150 150 150 150 28 28 28 28 28
 27 27 27 202 24 24 24 24 24 24 24 24 24 119 119 43 43 43 43 43
 177 177 177 28 28 28 28 28 28 27 27 27 27 24 24 24 24 24 24 24
 24 24 119 119 43 43 43 43 43 177 177 177 177 95 95 95 95 28 27 27
 29 29 24 24 24 24 24 24 24 24 24 43 43 43 43 43 147 147 147 222
 222 222 95 95 95 95 180 29 29 29 29 24 24 24 24 24 24 24 24 67