# vtk DataFile Version 2.0
Data set from ImportExport Version 6.5.171.b0b162591
ASCII

DATASET RECTILINEAR_GRID
DIMENSIONS 30 30 30
X_COORDINATES 30 float
-1.250000 1.250000 3.750000 6.250000 8.750000 11.250000 13.750000 16.250000 18.750000 21.250000 23.750000 26.250000 28.750000 31.250000 33.750000 36.250000 38.750000 41.250000 43.750000 46.250000 48.750000 
51.250000 53.750000 56.250000 58.750000 61.250000 63.750000 66.250000 68.750000 71.250000 
Y_COORDINATES 30 float
-1.250000 1.250000 3.750000 6.250000 8.750000 11.250000 13.750000 16.250000 18.750000 21.250000 23.750000 26.250000 28.750000 31.250000 33.750000 36.250000 38.750000 41.250000 43.750000 46.250000 48.750000 
51.250000 53.750000 56.250000 58.750000 61.250000 63.750000 66.250000 68.750000 71.250000 
Z_COORDINATES 30 float
-1.250000 1.250000 3.750000 6.250000 8.750000 11.250000 13.750000 16.250000 18.750000 21.250000 23.750000 26.250000 28.750000 31.250000 33.750000 36.250000 38.750000 41.250000 43.750000 46.250000 48.750000 
51.250000 53.750000 56.250000 58.750000 61.250000 63.750000 66.250000 68.750000 71.250000 
CELL_DATA 24389
SCALARS FeatureIds int 1
LOOKUP_TABLE default
 230 50 50 50 50 50 21 21 21 121 121 121 121 121 121 107 107 81 81 81
 120 46 46 46 46 46 46 46 230 230 230 50 50 50 50 21 21 21 121 121
 121 121 121 121 107 107 81 81 81 81 46 46 46 46 46 46 46 230 230 230
 173 173 173 173 21 19 19 121 121 121 121 121 121 107 81 81 81 81 81 46
 46 46 46 46 46 46 230 92 92 173 173 173 173 173 19 19 19 121 121 121
 241 241 217 217 81 81 81 81 81 46 46 46 46 46 46 92 92 92 173 173
 173 173 173 19 19 19 19 121 121 241 217 217 217 217 81 81 81 81 46 46
 46 4 4 4 92 92 92 92 173 173 173 173 19 19 43 19 121 183 183 217
 217 217 217 217 81 81 81 4 4 4 4 4 4 92 92 92 92 92 173 173
 173 43 43 43 183 183 183 183 217 217 217 217 217 217 81 81 4 4 4 4
 4 4 92 92 92 92 92 92 92 43 43 43 43 55 183 183 183 217 217 217
 217 217 182 182 182 4 4 4 4 4 4 92 92 92 92 92 92 92 94 94
 43 55 55 55 55 55 122 122 217 182 182 182 182 182 182 4 4 4 4 4
 92 92 92 92 92 92 94 94 94 94 55 55 55 55 55 122 122 182 182 182
 182 182 182 182 182 4 4 4 4 92 92 187 187 187 94 94 94 94 94 94
 55 55 55 55 122 122 182 182 182 182 182 182 182 182 4 4 4 4 92 187
 187 187 187 94 94 94 94 94 94 94 55 28 28 28 74 182 182 182 182 182
 182 182 182 225 225 4 187 187 187 187 187 187 79 79 94 94 94 94 94 28
 28 28 28 24 182 182 182 182 182 182 225 225 225 225 225 187 187 187 187 187
 187 79 79 79 94 94 94 94 28 28 28 24 24 24 160 182 182 182 186 225
 225 225 225 225 187 187 187 187 187 79 79 79 79 94 219 219 219 219 219 219
 24 24 24 160 160 160 186 186 186 186 225 225 192 187 187 187 187 187 79 79
 79 79 219 219 219 219 219 219 219 24 24 24 160 160 160 186 186 186 186 186
 192 192 192 187 187 187 187 79 79 23 23 23 219 219 219 219 219 219 24 24
 160 160 160 160 186 186 186 186 186 192 192 192 192 192 187 187 79 23 23 23
 23 219 219 219 219 219 219 219 24 160 160 160 160 186 186 186 186 192 192 192
 192 192 192 192 39 39 23 23 23 23 219 219 219 219 219 219 219 24 160 160
 227 227 227 223 186 130 130 130 192 192 192 192 39 39 39 39 23 23 23 219
 219 219 219 219 219 83 83 227 227 227 227 227 227 227 130 130 130 130 130 130
 69 39 39 39 39 39 23 219 219 219 219 219 219 83 83 83 227 227 227 227
 227 227 227 130 130 130 130 130 130 69 39 39 39 39 39 39 219 219 119 119
 119 119 83 83 227 227 227 227 227 227 227 176 176 130 130 130 69 69 69 69
 39 39 39 39 151 215 215 119 119 119 119 119 83 227 227 227 227 227 227 176
 176 176 130 69 69 69 69 69 69 39 39 39 151 151 151 215 215 119 119 119
 119 71 227 227 227 227 227 176 176 176 176 176 69 69 69 69 69 69 69 50
 50 151 21 21 21 143 143 119 119 119 71 106 106 106 106 176 176 176 176 176
 176 69 69 69 69 69 50 50 50 50 50 21 21 21 143 143 143 143 143 71
 106 106 106 106 120 120 176 176 176 176 69 69 69 69 69 50 50 50 50 50
 21 21 21 143 143 143 143 143 143 106 106 106 106 120 120 120 120 120 120 69
 69 69 69 50 50 50 50 50 50 21 21 21 143 143 143 143 143 143 106 106
 106 106 120 120 120 120 120 120 46 69 69 69 50 50 50 50 50 50 21 21
 21 143 143 143 143 143 143 143 106 106 106 120 120 120 46 46 46 46 46 69
 69 230 230 50 50 50 50 21 21 21 143 143 143 143 143 107 107 107 107 81
 81 81 46 46 46 46 46 46 46 230 230 230 230 230 50 50 21 21 21 121
 121 121 121 121 107 107 107 81 81 81 81 46 46 46 46 46 46 46 230 230
 230 230 230 173 50 21 19 19 121 121 121 121 121 107 107 107 81 81 81 81
 46 46 46 46 46 46 46 230 230 230 92 173 173 173 173 19 19 19 121 121
 121 241 241 217 217 217 81 81 81 81 46 46 46 46 46 92 92 92 92 92
 92 173 173 173 19 19 43 19 121 121 241 217 217 217 217 81 81 81 81 46
 46 46 46 46 92 92 92 92 92 92 92 173 43 43 43 43 43 43 183 217
 217 217 217 217 217 81 81 81 46 46 4 4 4 92 92 92 92 92 92 92
 92 43 43 43 43 43 43 183 183 217 217 217 217 217 217 81 81 4 4 4
 4 4 92 92 92 92 92 92 92 92 43 43 43 43 43 43 43 43 217 217
 217 217 217 217 182 182 4 4 4 4 4 92 92 92 92 92 92 92 92 43
 43 43 43 43 43 55 122 122 122 122 182 182 182 182 182 182 4 4 4 4
 92 92 92 92 92 92 92 94 94 94 94 43 43 43 55 122 122 122 122 182
 182 182 182 182 182 182 4 4 4 92 92 92 92 92 92 94 94 94 94 94
 94 94 55 55 28 122 122 74 74 182 182 182 182 196 196 196 4 4 92 92
 187 187 187 187 94 94 94 94 94 94 94 28 28 28 28 74 74 74 182 182
 182 182 196 196 196 196 4 187 187 187 187 187 187 94 94 94 94 94 94 94
 28 28 28 28 28 74 74 182 182 182 182 196 196 225 225 187 187 187 187 187
 187 187 79 79 94 94 94 94 94 28 28 28 28 24 24 160 160 182 182 186
 186 186 225 225 187 187 187 187 187 187 187 79 79 79 94 219 219 219 219 219
 28 24 24 160 160 160 160 186 186 186 186 186 192 192 187 187 187 187 187 187
 79 79 54 54 219 219 219 219 219 219 24 24 160 160 160 160 186 186 186 186
 206 192 192 192 192 192 187 187 187 54 54 54 54 219 219 219 219 219 219 24
 24 160 160 160 160 186 186 186 206 206 192 192 192 192 192 192 192 54 54 54
 54 54 219 219 219 219 219 219 219 24 160 160 160 160 186 186 206 206 206 192
 192 192 192 192 192 192 39 54 54 54 54 219 219 219 219 219 219 83 83 160
 227 227 227 227 227 206 206 206 192 192 192 192 192 192 39 39 39 54 54 54
 219 219 219 219 219 83 83 83 227 227 227 227 227 227 206 206 206 130 192 192
 192 69 39 39 39 39 39 54 219 219 219 219 219 83 83 83 83 227 227 227
 227 227 227 227 130 130 130 130 130 192 69 39 39 39 39 39 151 215 215 215
 219 219 83 83 83 83 227 227 227 227 227 227 176 176 130 130 130 69 69 69
 69 39 39 39 151 151 215 215 215 215 215 119 83 83 83 227 227 227 227 227
 176 176 176 176 69 69 69 69 69 69 39 39 151 151 151 151 215 215 215 215
 119 71 71 71 71 227 227 227 176 176 176 176 176 69 69 69 69 69 69 50
 50 151 151 151 151 151 215 215 215 215 71 71 71 71 16 227 176 176 176 176
 176 176 69 69 69 69 69 50 50 50 50 151 151 151 151 151 143 143 143 143
 71 71 71 16 16 176 176 176 176 176 176 69 69 69 69 50 50 50 50 50
 50 21 21 21 143 143 143 143 143 71 71 71 16 16 120 120 120 120 120 120
 46 69 69 69 50 50 50 50 50 50 21 21 21 143 143 143 143 143 71 71
 71 16 106 120 120 120 120 46 46 46 46 69 69 50 50 50 50 50 50 21
 21 21 143 143 143 143 143 143 107 107 16 106 120 120 46 46 46 46 46 46
 46 105 230 230 230 50 50 50 21 21 21 143 143 143 143 143 107 107 107 107
 81 81 46 46 46 46 46 46 231 231 230 230 230 230 230 50 50 21 21 21
 121 121 121 121 107 107 107 107 107 81 81 81 46 46 46 46 46 231 231 230
 230 230 230 230 42 42 21 21 19 121 121 121 121 107 107 107 107 81 81 81
 81 46 46 46 46 46 231 231 230 230 230 230 230 42 42 43 43 43 43 121
 121 121 107 107 107 107 81 81 81 81 81 46 46 46 46 231 231 230 92 92
 92 92 207 207 43 43 43 43 43 43 140 140 217 217 217 217 81 81 81 81
 46 46 46 46 231 92 92 92 92 92 92 92 173 43 43 43 43 43 43 43
 43 217 217 217 217 217 81 81 81 46 46 137 137 7 7 92 92 92 92 92
 92 92 43 43 43 43 43 43 43 43 217 217 217 217 217 217 81 81 137 137
 137 4 7 7 92 92 92 92 92 92 92 43 43 43 43 43 43 43 43 122
 122 217 217 217 182 182 182 182 137 137 4 7 7 92 92 92 92 92 92 92
 43 43 43 43 43 43 43 122 122 122 122 122 182 182 182 182 182 137 137 137
 7 7 92 92 92 92 92 92 94 94 94 43 43 43 43 43 122 122 122 122
 74 182 182 182 196 196 196 137 137 7 7 92 92 92 92 92 94 94 94 94
 94 94 94 43 28 28 122 122 74 74 74 182 182 196 196 196 196 137 7 7
 92 187 187 187 94 94 94 94 94 94 94 94 28 28 28 28 74 74 74 74
 182 182 196 196 196 196 196 7 187 187 187 187 187 187 94 94 94 94 94 94
 94 28 28 28 28 28 74 74 74 182 182 196 196 196 196 196 187 187 187 187
 187 187 187 79 94 94 94 94 94 28 28 28 28 28 28 74 74 74 182 182
 196 196 196 196 26 26 187 187 187 187 187 187 79 79 94 94 94 219 219 28
 28 28 28 24 160 160 160 160 186 186 186 186 186 26 26 192 187 187 187 187
 187 79 54 54 54 54 219 219 219 219 219 24 24 160 160 160 160 186 186 186
 206 206 206 26 192 192 192 187 187 54 54 54 54 54 54 219 219 219 219 219
 24 24 160 160 160 160 186 186 206 206 206 206 192 192 192 192 192 192 54 54
 54 54 54 54 219 219 219 219 219 83 24 160 160 160 160 186 206 206 206 206
 206 192 192 192 192 192 192 54 54 54 54 54 54 219 219 219 219 83 83 83
 83 227 227 227 227 206 206 206 206 206 192 192 192 20 20 39 54 54 54 54
 54 219 219 219 219 83 83 83 83 83 227 227 227 227 227 206 206 206 206 192
 192 192 20 20 39 39 109 109 54 54 219 219 219 219 83 83 83 83 227 227
 227 227 227 227 206 206 206 130 130 20 20 20 20 39 39 39 109 109 215 215
 215 215 215 83 83 83 83 227 227 227 227 227 227 176 176 176 130 20 20 20
 69 69 39 39 151 151 215 215 215 215 215 215 83 83 83 83 227 227 227 227
 227 176 176 176 176 64 20 20 20 69 69 50 151 151 151 151 151 215 215 215
 215 215 71 71 71 71 16 227 227 176 176 176 176 176 64 69 69 69 69 145
 50 50 151 151 151 151 151 215 215 215 215 71 71 71 71 16 16 176 176 176
 176 176 176 64 64 69 69 145 50 50 50 50 151 151 151 151 215 215 143 143
 71 71 71 71 16 16 16 176 176 176 176 176 64 64 64 69 50 50 50 50
 50 151 151 151 151 151 143 143 143 143 71 71 71 16 16 16 120 120 176 176
 64 64 64 105 105 50 50 50 50 50 50 21 21 21 143 143 143 143 143 71
 71 71 16 16 16 120 120 46 46 46 46 105 105 105 230 50 50 50 50 50
 21 21 21 143 143 143 143 143 107 107 107 16 16 120 120 46 46 46 46 46
 46 105 105 230 230 230 42 42 42 21 21 21 143 143 143 143 107 107 107 107
 107 107 81 46 46 46 46 231 231 231 231 230 230 230 230 42 42 42 21 21
 21 140 140 140 140 107 107 107 107 107 81 81 81 46 46 46 231 231 231 231
 230 230 230 230 42 42 42 42 21 140 140 140 140 140 107 107 107 107 107 81
 81 81 46 46 46 231 231 231 231 230 230 230 230 42 42 42 42 43 43 140
 140 140 140 107 107 107 107 107 81 81 81 81 46 46 231 231 231 231 230 92
 92 207 207 207 207 43 43 43 144 140 140 140 140 107 107 217 217 81 81 81
 81 46 46 231 231 231 7 7 92 92 207 207 207 207 43 43 43 43 43 43
 43 224 224 217 217 217 217 81 81 81 137 137 137 137 7 7 7 92 92 92
 207 207 207 43 43 43 43 43 43 43 224 224 224 224 217 217 81 81 137 137
 137 137 137 7 7 7 92 92 92 92 92 43 43 43 43 43 43 43 43 224
 224 224 224 217 217 182 196 196 137 137 137 137 7 7 7 92 92 92 92 92
 43 43 43 43 43 43 43 43 122 122 122 122 122 182 182 196 196 196 137 137
 137 7 7 7 92 92 92 92 92 94 94 43 43 43 43 43 43 122 122 122
 122 74 74 182 196 196 196 196 137 137 7 7 7 92 92 92 92 94 94 94
 94 94 94 43 43 28 28 122 122 74 74 74 74 196 196 196 196 196 137 7
 7 7 27 27 27 94 94 94 94 94 94 94 94 28 28 28 28 74 74 74
 74 74 196 196 196 196 196 137 7 27 27 27 27 27 27 94 94 94 94 94
 94 28 28 28 28 28 28 74 74 74 74 196 196 196 196 196 196 27 27 27
 27 27 27 27 79 94 94 94 94 94 28 28 28 28 28 28 74 74 74 196
 196 196 196 196 196 26 26 27 27 27 27 27 27 79 54 54 54 54 219 28
 28 28 28 28 28 160 160 160 160 186 186 186 186 206 26 26 26 26 27 27
 27 34 54 54 54 54 54 219 219 219 28 28 28 24 160 160 160 160 186 186
 206 206 206 26 26 26 26 192 208 208 54 54 54 54 54 54 219 219 219 219
 219 24 24 24 160 160 160 186 206 206 206 206 26 26 26 26 192 208 208 208
 54 54 54 54 54 219 219 219 219 83 83 83 160 160 160 227 186 206 206 206
 206 26 26 26 192 20 20 208 109 109 109 54 54 54 219 219 219 83 83 83
 83 83 227 227 227 227 206 206 206 206 206 26 192 192 20 20 20 109 109 109
 109 109 109 219 219 83 83 83 83 83 83 227 227 227 227 227 206 206 206 206
 20 20 20 20 20 20 109 109 109 109 109 109 109 219 83 83 83 83 83 83
 227 177 177 177 227 206 206 206 20 20 20 20 20 20 20 109 109 109 109 109
 215 215 215 215 83 83 83 83 83 227 177 177 177 177 176 176 176 20 20 20
 20 20 20 145 145 151 151 109 215 215 215 215 215 83 83 83 83 177 177 177
 177 177 176 176 176 176 64 20 20 20 145 145 145 145 151 151 151 151 215 215
 215 215 215 71 71 71 71 16 177 177 176 176 176 176 64 64 64 64 20 145
 145 145 50 151 151 151 151 215 215 215 215 215 71 71 71 71 16 16 16 176
 176 176 176 64 64 64 64 64 145 145 50 50 50 151 151 151 151 215 215 143
 143 71 71 71 71 16 16 16 176 176 176 176 64 64 64 64 64 145 145 50
 50 50 151 151 151 151 151 143 143 143 71 71 71 71 16 16 16 176 176 176
 64 64 64 64 105 105 145 50 50 50 50 151 151 151 151 151 143 143 143 143
 71 71 71 16 16 16 120 120 46 46 64 105 105 105 105 230 230 230 50 50
 50 21 21 21 143 143 143 143 143 107 107 107 16 16 16 38 46 46 46 231
 231 231 105 105 230 230 42 42 42 42 42 21 21 143 143 143 143 107 107 107
 107 107 1 1 1 38 231 231 231 231 231 231 105 230 230 42 42 42 42 42
 42 140 140 140 140 140 107 107 107 107 107 1 1 1 38 231 231 231 231 231
 231 231 230 230 42 42 42 42 42 42 140 140 140 140 140 140 107 107 107 1
 1 1 1 1 231 231 231 231 231 231 231 230 230 42 42 42 42 42 144 144
 140 140 140 140 140 107 107 107 1 1 1 1 1 1 231 231 231 231 231 231
 230 207 207 207 207 207 207 144 144 144 140 140 140 140 140 107 107 1 1 1
 1 1 1 231 231 231 231 7 7 7 207 207 207 207 207 207 144 144 144 144
 140 140 140 224 224 224 1 1 1 1 1 137 137 137 137 7 7 7 7 207
 207 207 207 207 43 43 43 43 43 43 43 224 224 224 224 224 217 1 1 1
 137 137 137 137 7 7 7 7 92 207 207 207 207 43 43 43 43 43 43 43
 224 224 224 224 224 224 1 89 89 137 137 137 137 7 7 7 7 92 92 92
 207 207 43 43 43 43 43 43 43 224 224 224 224 224 224 74 196 196 137 137
 137 137 7 7 7 7 92 92 92 92 94 94 43 43 43 43 43 43 122 122
 122 122 74 74 74 196 196 196 196 137 137 7 7 7 27 27 92 92 94 94
 94 94 94 43 43 43 28 28 122 122 74 74 74 74 196 196 196 196 137 137
 7 7 7 27 27 27 34 34 94 94 94 94 94 28 28 28 28 28 74 74
 74 74 74 196 196 196 196 196 137 7 27 27 27 27 27 27 34 94 94 94
 94 94 28 28 28 28 28 28 74 74 74 74 196 196 196 196 196 196 27 27
 27 27 27 27 27 34 51 51 51 51 94 28 28 28 28 28 28 74 74 74
 74 196 196 196 196 102 26 27 27 27 27 27 27 27 34 51 54 54 54 54
 28 28 28 28 28 28 160 160 160 160 186 186 186 206 26 26 26 26 27 27
 27 27 34 34 54 54 54 54 54 219 170 170 170 170 170 160 160 160 160 186
 206 206 206 26 26 26 26 26 208 208 208 208 54 54 54 54 54 54 219 219
 170 170 170 170 24 160 160 160 186 206 206 206 26 26 26 26 26 208 208 208
 208 109 109 54 54 54 109 219 219 83 83 83 83 83 160 160 227 206 206 206
 206 206 26 26 26 26 20 208 208 109 109 109 109 109 109 109 219 83 83 83
 83 83 83 227 227 227 206 206 206 206 206 26 26 26 192 20 20 20 109 109
 109 109 109 109 109 109 83 83 83 83 83 83 227 227 177 177 206 206 206 206
 26 20 20 20 20 20 20 109 109 109 109 109 109 109 109 83 83 83 83 83
 83 177 177 177 177 177 206 206 206 20 20 20 20 20 20 20 109 109 109 109
 109 109 215 215 83 83 83 83 83 83 177 177 177 177 177 177 176 64 20 20
 20 20 20 20 145 145 109 109 109 215 215 215 215 215 83 83 83 83 177 177
 177 177 177 177 176 176 64 64 20 20 20 145 145 145 145 151 151 151 151 215
 215 215 215 215 71 71 71 71 16 177 177 177 176 176 95 64 64 64 64 20
 145 145 145 145 151 151 151 151 215 215 215 215 215 71 71 71 71 16 16 16
 176 95 95 95 64 64 64 64 145 145 145 145 145 151 151 151 151 151 151 215
 215 143 71 71 71 71 16 16 16 95 95 95 95 64 64 64 64 145 145 145
 145 145 50 151 151 151 151 151 143 143 143 71 71 71 71 16 16 16 95 95
 95 95 64 64 64 105 105 105 145 145 50 50 151 151 151 151 151 143 143 143
 84 84 84 84 16 16 16 38 95 95 95 64 105 105 105 105 105 230 42 42
 42 151 151 151 151 151 143 143 143 84 84 84 84 16 16 38 38 38 231 231
 231 231 105 105 105 230 42 42 42 42 42 42 42 63 63 140 140 140 107 107
 107 107 12 38 38 38 38 38 231 231 231 231 231 105 230 42 42 42 42 42
 42 63 63 63 140 140 140 107 107 107 107 107 1 1 38 38 38 231 231 231
 231 231 231 230 230 42 42 42 42 42 63 63 63 140 140 140 140 107 107 107
 1 1 1 1 38 38 231 231 231 231 231 231 230 230 42 42 42 42 42 63
 63 63 140 140 140 140 107 107 107 1 1 1 1 1 38 231 231 231 231 231
 231 207 207 207 207 207 207 207 144 144 144 140 140 140 140 140 224 1 1 1
 1 1 1 1 231 231 231 7 7 7 7 207 207 207 207 207 207 144 144 144
 144 140 140 140 224 224 224 1 1 1 1 1 137 137 137 137 7 7 7 7
 207 207 207 207 207 207 144 144 144 144 144 140 224 224 224 224 224 1 1 1
 89 137 137 137 137 7 7 7 7 7 207 207 207 207 43 43 43 43 43 43
 43 224 224 224 224 224 224 89 89 89 89 137 137 137 7 7 7 7 7 92
 207 207 207 43 43 43 43 43 43 43 224 224 224 224 224 224 89 89 89 89
 137 137 137 7 7 7 7 7 92 92 207 164 164 43 43 43 43 43 43 224
 224 224 224 74 74 89 89 89 89 89 137 137 7 7 7 27 27 27 34 34
 164 164 164 164 164 43 43 28 28 122 122 74 74 74 74 89 89 89 89 137
 137 7 7 7 27 27 27 34 34 164 164 164 164 164 164 28 28 28 28 74
 74 74 74 74 196 196 196 196 102 102 7 27 27 27 27 27 34 34 164 164
 164 164 164 28 28 28 28 28 28 74 74 74 74 196 196 196 102 102 102 27
 27 27 27 27 27 34 34 51 51 51 51 51 28 28 28 28 28 28 74 74
 74 74 196 196 196 102 102 102 27 27 27 27 27 27 34 34 51 51 51 51
 51 170 170 170 170 170 170 74 74 74 74 196 196 196 102 26 26 26 26 27
 27 27 208 34 34 51 51 51 51 51 51 170 170 170 170 170 170 160 160 199
 186 206 206 206 26 26 26 26 26 208 208 208 208 208 51 51 51 51 51 219
 170 170 170 170 170 170 160 160 37 186 206 206 206 26 26 26 26 26 208 208
 208 208 109 109 109 109 109 109 109 170 170 170 170 170 170 37 37 37 37 206
 206 206 206 26 26 26 208 208 208 208 208 109 109 109 109 109 109 109 83 83
 83 83 83 83 37 37 37 37 37 206 206 206 26 26 20 208 20 20 208 109
 109 109 109 109 109 109 109 83 83 83 83 83 83 37 37 37 37 37 206 206
 206 20 20 20 20 20 20 20 109 109 109 109 109 109 109 109 83 83 83 83
 83 83 37 37 37 37 37 37 9 206 20 20 20 20 20 20 20 109 109 109
 109 109 109 109 109 83 83 83 83 83 83 37 37 177 37 37 9 9 64 20
 20 20 20 20 20 145 145 109 109 109 109 215 215 215 215 83 83 83 83 177
 177 177 177 177 95 95 95 64 64 64 20 20 145 145 145 145 30 151 151 151
 215 215 215 215 215 71 71 71 71 16 161 161 161 95 95 95 64 64 64 64
 20 145 145 145 145 30 30 151 151 151 215 215 215 215 71 71 71 71 16 16
 161 161 95 95 95 64 64 64 64 64 145 145 145 145 30 30 151 151 151 151
 215 215 143 71 71 71 71 16 16 16 95 95 95 95 64 64 64 64 145 145
 145 145 145 30 30 151 151 151 151 151 143 143 84 84 84 84 16 16 12 95
 95 95 95 95 64 64 105 105 105 145 145 145 30 151 151 151 151 151 151 143
 143 84 84 84 84 84 12 12 38 95 95 95 95 105 105 105 105 105 42 42
 42 42 42 151 151 151 151 143 143 84 84 84 84 84 12 12 38 38 38 38
 231 231 231 105 105 105 42 42 42 42 42 42 42 63 63 63 63 140 140 107
 107 12 12 12 12 38 38 38 38 231 231 231 231 231 105 230 42 42 42 42
 42 42 63 63 63 63 140 140 140 107 12 12 1 1 38 38 38 38 231 231
 231 231 231 231 230 42 42 42 42 42 42 63 63 63 63 140 140 140 107 107
 107 1 1 1 38 38 38 231 231 231 231 231 231 230 207 207 42 42 42 42
 63 63 63 63 140 140 140 140 107 1 1 1 1 1 38 38 231 231 231 231
 231 231 207 207 207 207 207 207 207 63 63 63 63 140 140 140 140 224 1 1
 1 1 1 1 38 231 231 231 7 7 7 7 207 207 207 207 207 207 144 144
 144 144 140 140 140 224 224 224 1 1 1 1 1 137 137 137 137 7 7 7
 7 207 207 207 207 207 207 144 144 144 144 144 140 224 224 224 224 224 232 1
 1 89 137 137 137 137 7 7 7 7 7 207 207 207 207 57 144 144 144 144
 144 224 224 224 224 224 224 232 89 89 89 89 137 137 137 7 7 7 7 7
 207 207 207 57 57 57 57 43 43 43 224 224 224 224 224 224 232 89 89 89
 89 89 137 137 7 7 7 7 7 207 207 57 57 57 164 164 164 43 43 224
 224 224 224 224 224 232 89 89 89 89 89 137 137 7 7 7 27 27 34 34
 164 164 164 164 164 164 164 164 28 224 224 122 74 74 74 89 89 89 89 89
 102 137 7 7 7 27 27 34 34 34 164 164 164 164 164 164 28 28 28 28
 74 74 74 74 89 89 89 102 102 102 102 27 27 27 27 27 34 34 34 164
 164 164 164 164 164 28 167 167 167 28 74 74 74 74 196 102 102 102 102 102
 102 27 27 27 27 34 34 34 34 51 51 51 51 51 10 10 167 167 28 74
 74 74 74 196 102 102 102 102 102 102 27 27 27 27 34 34 34 51 51 51
 51 51 51 10 10 10 170 170 170 74 199 199 102 102 102 102 102 102 26 27
 27 208 208 34 34 34 51 51 51 51 51 10 10 10 170 170 170 170 199 199
 199 199 102 102 102 102 26 26 26 27 208 208 208 208 34 51 51 51 51 51
 51 10 170 170 170 170 170 199 199 199 199 102 102 102 26 26 26 26 208 208
 208 208 208 109 109 109 109 109 109 109 10 170 170 170 170 170 37 37 37 37
 37 206 206 206 26 26 208 208 208 208 208 208 109 109 109 109 109 109 109 83
 83 83 83 83 37 37 37 37 37 37 206 206 206 26 26 208 208 208 208 208
 208 109 109 109 109 109 109 109 83 83 83 83 83 37 37 37 37 37 37 9
 9 99 99 20 20 20 20 20 208 109 109 109 109 109 109 109 109 83 83 83
 83 83 37 37 37 37 37 37 9 9 9 99 20 20 20 20 20 20 109 109
 109 109 109 109 109 109 83 83 83 83 83 37 37 37 37 37 9 9 9 99
 99 20 20 20 20 70 70 70 30 109 109 109 109 109 215 215 83 83 83 83
 161 161 161 161 161 9 9 95 64 64 64 20 20 70 70 70 70 30 30 30
 30 215 215 215 215 59 59 59 71 161 161 161 161 161 95 95 95 95 64 64
 64 20 70 70 70 70 30 30 30 30 151 215 215 59 59 59 71 71 12 161
 161 161 161 95 95 95 95 64 64 64 70 70 70 70 70 30 30 30 30 151
 151 215 59 59 59 71 12 12 12 12 161 95 95 95 95 95 64 64 64 70
 70 70 70 70 30 30 30 30 151 151 151 59 59 84 84 84 84 12 12 12
 95 95 95 95 95 64 64 105 105 70 70 70 70 30 30 30 30 151 151 151
 59 59 84 84 84 84 12 12 12 95 95 95 95 95 95 105 105 105 105 42
 42 42 42 30 30 30 151 151 143 143 84 84 84 84 84 12 12 12 38 38
 38 231 231 231 105 105 105 68 42 42 42 42 42 42 63 63 63 63 63 140
 12 12 12 12 12 12 38 38 38 38 38 231 231 231 231 105 68 42 42 42
 42 42 42 63 63 63 63 63 140 140 12 12 12 12 12 38 38 38 38 38
 231 231 231 231 231 68 42 42 42 42 42 67 63 63 63 63 63 140 140 12
 12 12 1 1 38 38 38 38 38 231 231 231 231 231 152 207 207 42 42 67
 67 63 63 63 63 63 140 140 140 12 1 1 1 1 38 38 38 38 231 231
 231 231 231 152 207 207 207 207 207 67 63 63 63 63 63 140 140 140 224 232
 1 1 1 1 1 38 38 231 231 7 7 7 152 152 207 207 207 207 67 166
 166 166 166 166 140 140 224 224 232 232 232 232 1 1 38 137 137 137 7 7
 7 7 152 207 207 207 207 57 166 166 166 166 166 140 224 224 224 232 232 232
 232 232 89 89 137 137 137 7 7 7 7 7 207 207 207 57 57 57 57 57
 144 144 224 224 224 224 232 232 232 232 89 89 89 137 137 137 7 7 7 7
 7 207 207 57 57 57 57 57 57 57 57 224 224 224 224 232 232 232 89 89
 89 89 89 137 137 7 7 7 7 7 34 57 57 57 57 57 57 57 57 57
 224 224 224 232 232 232 232 89 89 89 89 89 137 137 7 7 7 27 34 34
 34 57 57 164 164 164 164 164 164 73 73 73 73 73 232 232 89 89 89 89
 89 102 102 7 7 7 27 34 34 34 34 164 164 164 164 164 164 167 167 73
 73 73 73 73 89 89 89 89 102 102 102 102 102 27 27 27 34 34 34 34
 164 164 164 164 164 164 167 167 167 167 73 73 73 60 89 102 102 102 102 102
 102 102 27 27 27 34 34 34 34 34 51 51 51 51 51 10 167 167 167 73
 73 199 199 199 102 102 102 102 102 102 102 27 27 27 34 34 34 34 51 51
 51 51 51 10 10 10 10 10 10 10 199 199 199 199 102 102 102 102 102 102
 27 27 208 208 34 34 34 51 51 51 51 51 10 10 10 10 10 10 10 199
 199 199 199 102 102 102 102 102 26 6 6 208 208 208 208 34 51 51 51 51
 51 10 10 10 10 10 134 134 199 199 199 199 102 102 102 102 102 26 208 208
 208 208 208 208 208 51 51 51 51 51 134 134 134 134 134 134 134 37 37 37
 37 37 102 102 102 102 26 208 208 208 208 208 208 109 109 109 109 109 109 109
 134 134 134 134 134 37 37 37 37 37 37 37 206 99 99 99 208 208 208 208
 208 208 171 109 109 109 109 109 109 134 134 134 134 134 37 37 37 37 37 37
 9 9 99 99 99 3 3 20 208 208 171 171 171 109 109 109 109 109 134 134
 134 83 37 37 37 37 37 37 9 9 9 99 99 99 3 3 20 20 171 171
 171 171 171 109 109 109 109 109 83 83 83 37 37 37 37 37 37 9 9 9
 99 99 99 3 3 70 70 70 171 171 171 171 109 109 109 109 138 59 59 59
 59 37 37 161 161 161 9 9 9 99 99 99 3 3 70 70 70 70 30 30
 30 14 14 14 215 59 59 59 59 59 161 161 161 161 161 95 95 95 95 64
 64 64 3 70 70 70 70 30 30 30 14 14 14 59 59 59 59 59 59 12
 12 161 161 161 95 95 95 95 95 64 64 70 70 70 70 70 30 30 30 14
 14 14 59 59 59 59 59 12 12 12 12 12 95 95 95 95 95 95 64 64
 70 70 70 70 70 30 30 30 14 14 14 59 59 59 59 59 12 12 12 12
 12 95 95 95 95 95 95 64 105 70 70 70 70 70 30 30 30 14 14 14
 59 59 59 59 12 12 12 12 12 12 12 95 95 95 95 95 105 105 105 105
 70 42 42 42 30 30 14 14 14 59 59 59 59 12 12 12 12 12 12 38
 38 38 38 231 231 231 105 105 68 68 68 68 42 42 67 63 63 63 63 63
 63 12 12 12 12 12 12 12 38 38 38 38 231 231 231 231 68 68 68 68
 68 42 67 67 63 63 63 63 63 63 12 12 12 12 12 12 38 38 38 38
 38 231 231 231 231 68 68 68 68 42 42 67 67 63 63 63 63 63 140 140
 12 12 12 12 12 38 38 38 38 38 231 231 231 231 68 152 152 152 42 67
 67 67 63 63 63 63 63 140 140 140 232 232 12 1 38 38 38 38 38 231
 231 231 231 68 152 152 152 207 67 67 67 67 63 63 63 63 140 140 232 232
 232 232 232 232 1 38 38 38 231 231 7 7 7 152 152 152 152 207 67 67
 67 166 166 166 166 140 232 232 232 232 232 232 232 232 175 175 148 137 137 7
 7 7 152 152 152 207 207 57 57 57 166 166 166 166 166 232 232 232 232 232
 232 232 232 232 89 137 137 137 7 7 7 7 152 152 207 57 57 57 57 57
 57 57 57 232 232 232 232 232 232 232 232 89 89 89 89 137 137 7 7 7
 7 139 139 57 57 57 57 57 57 57 57 57 57 232 232 232 232 232 232 232
 89 89 89 89 137 137 7 7 7 139 139 139 57 57 57 57 57 57 57 57
 57 73 73 232 232 232 232 232 89 89 89 89 89 89 137 7 7 7 139 139
 34 57 57 57 57 57 57 57 57 57 73 73 73 73 73 232 232 89 89 89
 89 102 102 102 7 7 139 27 34 34 34 34 164 164 164 164 164 164 164 73
 73 73 73 73 73 232 89 89 89 102 102 102 102 102 27 27 6 34 34 34
 34 164 164 164 164 164 164 167 167 167 73 73 73 73 60 60 102 102 102 102
 102 102 102 6 6 6 34 34 34 34 34 51 51 51 51 10 10 167 167 167
 73 73 199 60 60 60 102 102 102 102 102 102 6 6 6 6 34 34 34 51
 51 51 51 51 10 10 10 10 10 10 199 199 199 199 199 102 102 102 102 102
 6 6 6 6 208 34 34 34 51 51 51 51 51 10 10 10 10 10 134 134
 199 199 199 199 102 102 102 102 102 6 6 6 208 208 208 208 34 51 51 51
 51 51 134 134 134 134 134 134 134 199 199 199 199 199 102 102 102 102 6 6
 6 208 208 208 208 208 51 51 51 51 51 134 134 134 134 134 134 134 199 199
 199 199 199 102 102 102 102 6 6 208 208 208 208 208 208 221 221 221 221 221
 134 134 134 134 134 134 134 37 37 37 37 37 37 156 99 99 99 208 208 208
 208 208 171 171 171 221 221 221 221 134 134 134 134 134 134 37 37 37 37 37
 9 9 156 99 99 99 3 3 3 208 208 171 171 171 171 221 221 221 221 134
 134 134 134 134 37 37 37 37 37 9 9 156 99 99 99 3 3 3 3 171
 171 171 171 171 171 221 221 221 138 138 138 138 203 37 37 37 37 37 9 9
 156 99 99 99 3 3 3 3 171 171 171 171 171 171 221 221 138 138 138 138
 138 203 203 203 161 161 161 9 9 156 99 99 99 3 3 70 70 70 70 30
 30 14 14 14 14 14 59 59 59 59 59 203 203 161 161 161 95 95 95 95
 99 99 3 3 70 70 70 70 30 30 14 14 14 14 14 59 59 59 59 59
 12 12 161 161 161 95 95 95 95 95 64 64 70 70 70 70 70 30 30 14
 14 14 14 59 59 59 59 59 59 12 12 12 12 95 95 95 95 95 95 95
 64 70 70 70 70 70 30 30 14 14 14 14 59 59 59 59 59 12 12 12
 12 12 12 95 95 95 95 95 95 105 70 70 70 70 70 30 30 14 14 14
 14 59 59 59 59 12 12 12 12 12 12 12 95 95 95 95 95 95 105 105
 70 70 70 70 30 30 14 14 14 14 59 59 59 59 12 12 12 12 12 12
 12 38 38 95 95 95 231 105 105 68 68 68 68 68 68 67 117 117 117 117
 117 25 12 12 12 12 12 12 12 12 38 38 38 231 231 231 68 68 68 68
 68 68 68 67 67 117 117 117 117 117 117 12 12 12 12 12 12 12 38 38
 38 38 231 231 231 68 68 68 68 68 68 67 67 67 117 117 117 117 117 117
 117 12 12 12 12 12 38 38 38 38 38 231 231 231 68 68 68 152 68 68
 67 67 67 67 117 117 117 117 117 117 12 12 12 12 12 38 38 38 38 38
 231 231 148 68 68 152 152 152 152 67 67 67 67 117 117 117 117 117 117 232
 232 232 232 232 232 38 38 38 148 148 148 148 148 152 152 152 152 152 67 67
 67 67 117 117 117 117 117 232 232 232 232 232 232 232 175 175 175 148 148 148
 148 213 152 152 152 152 152 57 57 57 57 57 57 117 117 232 232 232 232 232
 232 232 232 175 175 175 175 148 148 213 213 213 139 139 139 139 57 57 57 57
 57 57 57 57 232 232 232 232 232 149 232 232 175 175 175 175 148 213 213 213
 213 139 139 139 139 57 57 57 57 57 57 57 57 57 232 232 232 232 232 232
 232 89 89 89 89 89 213 213 213 213 139 139 139 139 57 57 57 57 57 57
 57 57 73 73 73 232 232 232 232 232 89 89 89 89 89 213 213 213 139 139
 139 139 139 57 57 57 57 57 57 57 57 73 73 73 73 73 232 232 89 89
 89 89 102 102 102 102 139 139 139 139 139 34 34 57 57 57 57 57 57 98
 73 73 73 73 73 73 232 89 89 102 102 102 102 102 102 6 139 6 34 34
 34 34 193 164 118 118 118 118 233 167 73 73 73 73 73 60 60 60 102 102
 102 102 102 102 6 6 6 6 34 34 34 193 193 118 118 118 233 233 10 10
 73 73 73 199 60 60 60 102 102 102 102 102 6 6 6 6 6 34 34 34
 193 51 51 51 233 233 233 10 10 10 73 73 199 199 199 199 102 102 102 102
 102 6 6 6 6 6 6 34 34 51 51 51 51 233 233 233 10 134 134 134
 134 199 199 199 199 199 102 102 102 102 6 6 6 6 208 208 208 34 51 51
 51 51 112 233 134 134 134 134 134 134 199 199 199 199 199 102 102 102 102 6
 6 6 208 208 208 208 208 221 221 221 112 112 112 134 134 134 134 134 134 199
 199 199 199 199 102 102 102 102 6 6 208 208 208 208 208 221 221 221 221 221
 221 134 134 134 134 134 134 134 37 37 37 37 156 156 156 156 99 99 208 208
 208 208 208 171 171 221 221 221 221 221 134 134 134 134 134 134 134 37 37 37
 37 156 156 156 99 99 99 3 3 3 208 171 171 171 171 221 221 221 221 221
 134 134 134 134 134 37 37 37 37 37 9 156 156 99 99 99 3 3 3 3
 171 171 171 171 171 171 221 221 138 138 138 138 138 203 203 203 37 37 37 9
 156 156 99 99 99 3 3 3 3 171 171 171 171 171 171 221 14 138 138 138
 138 138 203 203 203 203 203 156 156 156 156 99 99 99 3 3 70 70 70 171
 171 171 171 14 14 14 14 138 138 59 59 203 203 203 203 203 161 156 156 156
 99 99 99 3 3 70 70 70 70 30 14 14 14 14 14 59 59 59 59 59
 59 203 203 203 235 235 95 95 95 95 95 95 3 70 70 70 70 70 30 14