# vtk DataFile Version 2.0
Data set from ImportExport Version 6.5.171.b0b162591
ASCII

DATASET RECTILINEAR_GRID
DIMENSIONS 30 30 30
X_COORDINATES 30 float
-1.250000 1.250000 3.750000 6.250000 8.750000 11.250000 13.750000 16.250000 18.750000 21.250000 23.750000 26.250000 28.750000 31.250000 33.750000 36.250000 38.750000 41.250000 43.750000 46.250000 48.750000 
51.250000 53.750000 56.250000 58.750000 61.250000 63.750000 66.250000 68.750000 71.250000 
Y_COORDINATES 30 float
-1.250000 1.250000 3.750000 6.250000 8.750000 11.250000 13.750000 16.250000 18.750000 21.250000 23.750000 26.250000 28.750000 31.250000 33.750000 36.250000 38.750000 41.250000 43.750000 46.250000 48.750000 
51.250000 53.750000 56.250000 58.750000 61.250000 63.750000 66.250000 68.750000 71.250000 
Z_COORDINATES 30 float
-1.250000 1.250000 3.750000 6.250000 8.750000 11.250000 13.750000 16.250000 18.750000 21.250000 23.750000 26.250000 28.750000 31.250000 33.750000 36.250000 38.750000 41.250000 43.750000 46.250000 48.750000 
51.250000 53.750000 56.250000 58.750000 61.250000 63.750000 66.250000 68.750000 71.250000 
CELL_DATA 24389
SCALARS FeatureIds int 1
LOOKUP_TABLE default
 220 215 215 55 55 55 55 55 55 55 149 149 149 149 149 67 67 67 160 160
 160 160 160 160 186 186 186 220 220 215 215 215 55 55 55 55 55 55 55 149
 149 149 86 86 86 67 168 160 160 160 160 160 160 186 186 220 220 220 215 215
 215 55 55 55 55 55 55 55 86 86 86 86 86 86 168 168 168 160 160 160
 160 160 186 29 29 220 220 215 215 215 106 106 55 55 55 55 86 86 86 86
 86 86 86 168 168 168 168 160 160 160 160 29 29 29 29 215 215 215 106 106
 106 106 55 55 55 86 86 86 86 86 86 86 214 168 168 38 38 38 38 38
 29 29 29 29 29 29 106 106 106 106 106 106 55 55 86 86 86 86 86 86
 86 214 168 168 38 38 38 38 43 43 29 29 29 29 29 106 159 159 159 159
 159 159 159 158 158 158 158 158 158 158 158 168 38 38 38 38 38 43 43 43
 29 29 29 29 159 159 159 159 159 159 159 159 158 158 158 158 158 158 158 158
 158 38 38 38 38 43 43 43 43 43 29 29 159 159 159 159 159 159 159 159
 240 240 240 240 240 240 240 240 240 240 190 190 38 38 43 43 43 43 43 43
 29 184 184 184 184 184 184 184 184 240 240 240 240 240 240 240 240 240 240 190
 190 112 20 20 20 20 43 43 43 29 184 184 184 184 184 184 184 184 234 234
 240 240 240 240 240 240 240 240 190 190 112 112 20 20 20 20 43 43 29 56
 56 56 184 184 184 6 6 6 234 240 240 240 240 240 209 209 209 190 190 112
 112 20 20 20 20 20 20 20 56 56 56 56 184 6 6 6 6 6 240 240
 240 209 209 209 209 209 194 194 194 194 20 20 20 20 20 20 20 56 56 56
 56 56 6 6 6 6 6 193 193 209 209 209 209 209 209 209 194 194 194 84
 84 84 84 84 208 208 56 56 56 56 6 6 6 6 6 6 193 193 193 209
 209 209 209 99 99 84 84 84 84 84 84 84 84 208 208 34 34 34 34 6
 6 6 6 6 6 193 193 193 99 99 99 99 99 99 84 84 84 84 84 84
 84 84 208 208 34 34 34 34 6 6 6 6 6 6 193 193 193 99 99 99
 99 99 84 84 84 84 84 84 84 84 84 208 208 208 34 34 34 6 6 6
 6 6 6 193 193 193 99 99 99 99 200 200 200 84 84 84 84 84 84 84
 208 208 208 208 46 46 183 183 6 6 6 6 193 193 193 146 146 146 200 200
 200 200 200 84 84 84 22 22 22 22 208 208 46 46 46 46 183 183 183 6
 229 229 25 25 25 25 146 200 200 200 200 200 200 84 22 22 22 22 22 208
 46 46 46 46 46 46 183 183 229 229 25 25 25 25 25 25 164 164 164 164
 164 200 200 22 22 22 22 22 208 93 46 46 46 46 46 46 46 229 229 25
 25 25 25 25 25 164 164 164 164 164 164 164 22 22 22 22 93 93 93 93
 46 46 46 46 46 46 229 229 25 25 25 25 25 25 164 164 164 164 164 164
 164 164 22 22 93 93 93 93 93 46 46 46 46 239 239 229 229 229 25 25
 25 25 25 164 164 164 164 80 80 80 80 80 155 93 93 93 93 93 93 239
 239 239 239 239 239 149 149 149 149 149 67 67 67 164 164 80 80 80 80 80
 80 155 93 93 93 93 93 93 239 239 239 239 239 239 149 149 149 149 149 67
 67 67 67 80 80 80 80 80 80 80 186 93 93 93 93 93 239 239 239 239
 239 239 239 149 149 149 149 149 67 67 67 67 67 80 80 80 80 80 186 186
 186 186 93 93 93 239 239 239 239 239 239 239 149 149 149 149 149 67 67 67
 67 67 80 80 80 80 80 186 186 186 186 186 220 239 239 239 239 239 239 239
 239 149 149 149 149 149 67 67 67 67 67 80 80 160 80 186 186 186 186 186
 186 220 220 63 63 239 239 55 55 55 149 149 149 149 149 149 67 67 67 67
 160 160 160 160 160 186 220 220 220 220 220 215 215 55 55 55 55 55 55 55
 149 149 149 86 86 86 168 168 168 160 160 160 160 160 186 220 220 220 220 215
 215 215 215 55 55 55 55 55 86 86 86 86 86 86 86 168 168 168 168 38
 38 38 38 211 220 220 220 220 215 215 215 106 106 55 55 55 55 86 86 86
 86 86 86 86 168 168 168 38 38 38 38 38 211 211 220 220 215 215 215 106
 106 106 106 55 55 86 86 86 86 86 86 86 86 168 168 168 38 38 38 38
 38 38 29 29 29 215 215 106 106 106 106 106 106 106 86 86 86 86 86 86
 86 86 168 168 168 38 38 38 38 38 43 29 29 29 29 29 159 159 106 106
 106 106 106 234 158 158 158 158 158 158 158 158 168 38 38 38 38 38 38 43
 43 29 29 29 159 159 159 159 159 159 159 159 234 234 158 158 158 158 158 158
 158 168 38 38 38 38 38 38 43 43 43 29 29 159 159 159 159 159 159 159
 234 234 234 240 240 240 240 240 240 240 190 190 190 38 38 38 43 43 43 43
 43 29 184 184 184 184 184 184 184 234 234 234 240 240 240 240 240 240 240 190
 190 190 190 190 20 20 20 43 43 43 29 184 184 184 184 184 184 184 234 234
 234 240 240 240 240 240 240 240 190 190 190 190 190 20 20 20 20 43 43 74
 56 56 56 184 184 184 184 6 234 234 240 240 240 240 240 209 209 190 190 190
 190 190 20 20 20 20 20 20 74 56 56 56 56 182 182 6 6 6 234 240
 240 240 209 209 209 209 209 190 190 190 84 84 20 20 20 20 20 208 56 56
 56 182 182 6 6 6 6 6 193 193 209 209 209 209 209 209 190 190 84 84
 84 84 84 84 208 208 208 34 34 34 182 182 222 6 6 6 6 193 193 193
 209 209 209 209 209 190 84 84 84 84 84 84 84 208 208 208 34 34 34 34
 222 222 6 6 6 6 193 193 193 209 209 209 209 209 84 84 84 84 84 84
 84 84 208 208 208 34 34 34 34 222 6 6 6 6 6 193 193 193 99 99
 99 99 99 84 84 84 84 84 84 84 84 208 208 208 208 34 34 34 183 183
 6 6 6 6 193 193 193 146 146 146 146 146 200 200 84 84 84 84 84 22
 208 208 208 208 208 34 183 183 183 183 183 6 6 229 229 146 146 146 146 146
 146 200 200 84 84 84 84 22 22 22 208 208 208 208 46 183 183 183 183 183
 183 229 229 229 146 146 146 146 146 146 164 164 164 164 2 2 22 22 22 2
 208 208 46 46 46 183 183 183 183 229 229 229 229 25 146 146 146 146 164 164
 164 164 164 164 2 22 22 22 2 208 93 46 46 46 46 183 183 183 229 229
 229 229 229 25 146 146 146 164 164 164 164 164 164 2 22 22 2 2 93 93
 93 46 46 46 46 63 63 229 229 229 229 25 25 25 146 164 164 164 164 164
 164 164 2 22 155 2 93 93 93 93 93 127 63 63 63 63 229 229 229 229
 229 25 25 146 164 164 164 164 80 80 80 80 155 155 155 93 93 93 93 93
 63 63 63 63 63 63 149 149 149 149 149 67 67 67 164 164 80 80 80 80
 80 80 155 93 93 93 93 93 63 63 63 239 63 63 63 149 149 149 149 149
 67 67 67 67 80 80 80 80 80 80 80 155 93 93 93 93 63 63 63 239
 239 239 63 63 63 149 149 149 149 67 67 67 67 67 80 80 80 80 80 186
 186 186 186 93 233 63 63 239 239 141 239 239 63 63 149 149 149 149 67 67
 67 67 67 80 80 80 80 80 186 186 186 186 220 220 63 63 63 239 239 239
 239 63 63 149 149 149 149 67 67 67 67 67 80 80 160 80 80 186 186 220
 220 220 220 220 63 63 63 63 63 63 63 63 149 149 149 149 149 67 67 13
 13 13 71 71 236 236 220 220 220 220 220 220 215 215 63 63 63 63 63 55
 55 149 149 149 86 86 86 13 13 13 13 38 38 38 236 220 220 220 220 220
 220 215 215 215 55 55 55 55 55 86 86 86 86 86 86 86 168 168 168 38
 38 38 38 38 211 220 220 220 220 215 215 215 106 106 106 55 55 86 86 86
 86 86 86 86 86 168 168 168 38 38 38 38 38 211 211 220 220 220 215 215
 106 106 106 106 106 106 86 86 86 86 86 86 86 86 168 168 168 38 38 38
 38 38 38 211 220 29 215 215 106 106 106 106 106 106 106 86 86 86 86 86
 86 86 1 1 168 38 38 38 38 38 38 38 38 29 29 29 159 159 159 106
 106 106 106 106 234 234 158 158 158 158 158 158 1 1 38 38 38 38 38 38
 38 43 29 29 29 159 159 159 159 159 159 159 234 234 234 240 240 158 158 158
 158 1 1 38 38 38 38 38 38 38 43 43 29 29 159 159 159 159 159 159
 159 234 234 234 234 240 240 240 240 240 240 190 190 38 38 38 38 38 43 43
 43 43 29 184 184 184 184 184 184 184 234 234 234 234 240 240 240 240 240 240
 190 190 190 190 190 125 125 125 43 43 43 74 184 184 184 184 184 184 184 234
 234 234 234 240 240 240 240 240 240 190 190 190 190 190 125 125 125 125 125 74
 74 56 56 56 182 184 184 184 234 234 234 234 240 240 240 240 209 209 190 190
 190 190 190 125 125 125 125 125 74 74 56 56 56 182 182 182 182 6 234 234
 234 240 240 240 209 209 209 190 190 190 190 190 125 125 125 125 125 208 34 56
 56 182 182 182 222 222 6 6 124 124 240 209 209 209 209 209 209 190 190 190
 84 84 84 84 84 208 208 34 34 34 34 182 182 222 222 6 124 124 124 124
 209 209 209 209 209 209 190 84 84 84 84 84 84 84 208 208 34 34 34 34
 34 222 222 222 222 6 124 124 124 193 209 209 209 209 209 84 84 84 84 84
 84 84 84 208 208 208 34 34 34 34 222 222 222 6 124 124 124 124 193 209
 209 209 209 66 66 84 84 84 84 84 84 208 208 208 208 208 34 34 34 183
 183 183 183 124 124 124 229 146 146 146 146 146 146 66 84 84 84 84 84 2
 2 208 208 208 208 34 34 183 183 183 183 183 183 229 229 229 146 146 146 146
 146 146 146 164 164 84 2 2 2 2 2 208 208 208 208 183 183 183 183 183
 183 183 229 229 229 229 146 146 146 146 146 164 164 164 164 2 2 2 2 2
 2 208 208 208 183 183 183 183 183 183 229 229 229 229 229 146 146 146 146 146
 164 164 164 164 2 2 2 2 2 2 208 93 127 127 127 183 183 183 183 229
 229 229 229 229 229 146 146 146 164 164 164 164 164 164 2 2 2 2 2 208
 93 127 127 127 127 183 183 229 229 229 229 229 229 229 229 146 146 164 164 164
 164 164 164 2 155 155 155 2 93 93 93 127 127 127 63 63 63 229 229 229
 229 229 229 229 146 146 164 164 164 80 80 80 80 155 155 155 93 93 93 93
 63 63 63 63 63 63 63 229 229 229 229 149 67 67 67 164 164 80 80 80
 80 80 155 155 155 93 93 93 63 63 63 63 63 63 63 63 63 149 149 149
 149 67 67 67 67 80 80 80 80 80 80 155 155 155 93 93 233 63 63 63
 63 63 63 63 63 63 149 149 149 149 67 67 67 67 67 80 80 80 80 80
 80 155 155 233 233 233 63 63 63 63 63 63 63 63 63 149 149 149 149 67
 67 67 67 67 80 80 80 80 80 80 186 220 220 220 220 233 63 63 63 63
 63 63 63 63 149 149 149 149 67 67 67 67 67 80 80 80 80 80 220 220
 220 220 220 220 233 63 63 63 63 63 63 63 63 149 149 149 149 111 111 13
 13 13 13 71 71 236 236 220 220 220 220 220 220 215 63 63 63 63 63 63
 63 63 149 149 149 86 111 111 13 13 13 13 71 71 236 236 211 220 220 90
 220 220 215 215 63 63 63 63 63 63 86 86 86 86 86 86 111 13 13 13
 13 71 71 236 211 211 211 220 220 220 220 215 215 106 106 106 55 63 63 86
 86 86 86 86 86 1 1 13 13 38 38 38 38 38 211 211 211 220 220 215
 215 106 106 106 106 106 116 116 86 86 86 86 86 1 1 1 1 38 38 38
 38 38 38 211 211 211 211 220 215 106 106 106 106 106 106 106 116 234 86 86
 86 1 1 1 1 1 38 38 38 38 38 38 38 211 211 211 211 159 159 159
 106 106 106 106 234 234 234 158 158 158 158 1 1 1 1 38 38 38 38 38
 38 38 211 211 211 29 159 159 159 159 159 159 159 234 234 234 234 240 158 158
 158 1 1 1 38 38 38 38 38 38 38 43 211 211 29 159 159 159 159 159
 159 234 234 234 234 234 240 240 240 240 240 1 190 190 190 38 38 38 38 38
 43 43 43 74 74 74 184 184 184 184 234 234 234 234 234 240 240 240 240 240
 240 190 190 190 190 190 125 125 125 125 125 74 74 74 74 74 184 184 184 234
 234 234 234 234 240 240 240 240 240 240 190 190 190 190 190 125 125 125 125 125
 74 74 238 74 74 182 182 182 234 234 234 234 234 240 240 240 240 240 190 190
 190 190 190 190 125 125 125 125 125 74 74 238 238 182 182 182 182 182 105 105
 234 144 240 240 240 209 209 209 190 190 190 190 190 125 125 125 125 125 238 238
 34 34 182 182 182 182 182 105 124 124 124 124 209 209 209 209 209 190 190 190
 190 190 125 125 125 125 208 208 34 34 34 34 182 182 222 222 222 124 124 124
 124 124 209 209 209 209 209 190 190 190 84 84 84 84 84 208 208 34 34 34
 34 34 222 222 222 222 124 124 124 124 124 209 209 209 209 66 66 190 84 84
 84 84 84 208 208 208 208 34 34 34 34 222 222 222 222 124 124 124 124 146
 146 146 66 66 66 66 66 84 84 84 84 84 208 208 208 208 208 34 34 34
 183 183 183 183 124 124 124 229 146 146 146 146 146 66 66 66 84 84 84 2
 2 2 208 208 208 208 34 34 183 183 183 183 183 183 229 229 229 229 146 146
 146 146 146 66 66 164 2 2 2 2 2 2 208 208 208 208 183 183 183 183
 183 183 229 229 229 229 229 146 146 129 146 146 164 164 164 2 2 2 2 2
 2 208 208 208 208 183 183 183 183 183 183 229 229 229 229 229 229 146 146 146
 146 164 164 164 164 2 2 2 2 2 2 208 127 127 127 127 183 183 183 183
 229 229 229 229 229 229 146 146 146 146 164 164 164 164 2 2 2 2 2 2
 208 127 127 127 127 127 127 183 229 229 229 229 229 229 229 229 146 146 164 164
 164 164 164 164 2 155 155 155 2 93 127 127 127 127 127 127 127 63 229 229
 229 229 229 229 229 229 146 164 164 164 80 80 80 155 155 155 155 155 93 36
 127 127 127 127 63 63 63 63 229 229 229 229 229 229 67 67 164 164 80 80
 80 80 80 155 155 155 155 233 36 36 36 63 63 63 63 63 63 63 95 149
 149 149 67 67 67 67 80 80 80 80 80 80 155 155 155 233 233 233 233 63
 63 63 63 63 63 63 63 95 95 149 149 67 67 67 67 67 80 80 80 80
 80 80 155 155 233 233 233 233 63 63 63 63 63 63 63 63 95 95 149 149
 67 67 67 67 13 80 80 80 80 80 220 220 220 220 233 233 233 63 63 63
 63 63 63 63 63 95 149 149 149 149 67 67 13 13 13 71 236 236 236 220
 220 220 220 220 233 233 233 63 63 63 63 63 63 63 95 95 95 111 111 111
 13 13 13 13 71 71 236 236 236 220 220 220 220 220 233 233 63 63 63 63
 63 63 63 95 95 149 111 111 111 13 13 13 13 71 71 236 236 211 220 220
 220 220 220 220 215 63 63 63 63 63 63 63 86 86 86 111 111 111 13 13
 13 13 236 236 236 236 211 211 220 220 220 220 215 215 106 106 63 116 116 116
 116 86 86 86 1 1 1 1 13 13 38 38 38 38 211 211 211 211 211 220
 215 215 106 106 106 106 116 116 116 116 86 86 1 1 1 1 1 1 1 38
 38 38 38 38 211 211 211 211 220 178 106 106 106 106 106 116 116 116 116 116
 1 1 1 1 1 1 1 38 38 38 38 38 38 211 211 211 211 211 178 159
 159 106 106 106 116 116 116 234 234 1 1 1 1 1 1 1 38 38 38 38
 38 38 38 211 211 211 178 74 159 159 159 159 159 116 116 234 234 234 147 147
 147 1 1 1 1 38 38 38 38 38 38 38 211 211 211 178 74 74 159 159
 159 159 234 234 234 234 234 147 147 147 147 147 1 1 190 38 38 38 38 38
 38 43 211 74 74 74 74 74 74 184 184 234 234 234 234 234 147 147 147 147
 147 1 190 190 190 190 190 125 125 125 125 125 74 74 74 74 74 74 74 184
 234 234 234 234 234 147 147 147 147 147 147 190 190 190 190 190 125 125 125 125
 125 74 74 238 74 74 74 182 182 105 105 105 234 234 147 147 147 147 147 190
 190 190 190 190 190 125 125 125 125 125 74 74 238 238 74 182 182 182 105 105
 105 144 144 144 147 147 147 209 209 190 190 190 190 190 125 125 125 125 125 238
 238 238 238 182 182 182 182 105 105 105 124 144 144 147 209 209 209 209 190 190
 190 190 190 125 125 125 188 208 208 238 34 34 34 182 182 222 222 105 124 124
 124 124 124 19 19 209 209 190 190 190 190 190 84 84 84 208 208 208 34 34
 34 34 34 222 222 222 124 124 124 124 124 124 124 19 209 66 66 66 66 84
 84 84 84 84 208 208 208 208 34 34 34 34 222 222 222 124 124 124 124 124
 124 146 146 66 66 66 66 66 66 84 84 84 84 208 208 208 208 208 34 34
 34 183 183 183 124 124 124 124 124 229 146 146 146 66 66 66 66 66 84 2
 2 2 2 208 208 208 208 34 34 183 183 183 183 183 229 229 229 229 229 146
 146 146 146 66 66 66 66 2 2 2 2 2 2 208 208 208 208 183 183 183
 183 183 183 229 229 229 229 229 146 146 146 146 146 66 66 164 2 2 2 2
 2 2 208 208 208 127 127 127 183 183 183 183 229 229 229 229 229 229 146 146
 146 146 164 164 164 2 2 2 2 2 2 2 208 127 127 127 127 127 183 183
 229 229 229 229 229 229 229 229 146 146 146 164 164 164 164 2 2 2 2 2
 2 208 127 127 127 127 127 127 127 229 229 229 229 229 229 229 229 146 146 146
 164 164 164 164 72 2 155 155 155 2 208 36 127 127 127 127 127 127 229 229
 229 229 176 229 229 229 229 146 146 164 164 80 80 80 155 155 155 155 155 155
 36 36 127 127 127 127 63 63 63 229 229 176 176 229 229 229 67 13 164 80
 80 80 80 155 155 155 155 155 233 36 36 36 127 63 63 63 63 63 95 95
 95 95 95 67 67 67 13 13 80 80 80 80 80 155 155 155 233 233 233 36
 233 63 63 63 63 63 63 95 95 95 95 95 67 67 67 13 13 80 80 80
 80 80 155 155 233 233 233 233 233 233 63 63 63 63 63 63 95 95 95 95
 95 67 67 13 13 13 13 71 236 236 236 220 220 233 233 233 233 233 233 63
 63 63 63 63 63 95 95 95 95 95 111 111 13 13 13 13 71 236 236 236
 220 220 220 220 233 233 233 233 233 63 63 63 63 63 95 95 95 95 111 111
 111 13 13 13 13 236 236 236 236 197 197 220 220 220 220 233 233 63 63 63
 63 63 63 95 95 95 95 111 111 111 13 13 13 13 236 71 236 236 211 211
 220 220 220 220 220 233 63 63 63 63 116 116 137 95 86 111 111 111 111 13
 13 13 13 236 236 236 211 211 211 211 211 220 220 215 215 63 63 116 116 116
 116 116 15 1 1 1 1 1 1 13 13 13 236 236 236 211 211 211 211 211
 211 178 178 106 106 116 116 116 116 116 116 116 1 1 1 1 1 1 1 1
 38 38 38 38 211 211 211 211 211 178 178 178 106 106 116 116 116 116 116 116
 116 1 1 1 1 1 1 1 1 38 38 38 38 38 211 211 211 178 178 178
 178 159 106 116 116 116 116 116 116 116 1 1 1 1 1 1 1 1 38 38
 38 38 38 38 178 178 178 178 178 238 159 159 159 116 116 116 116 234 147 147
 147 147 1 1 1 1 1 38 38 38 38 38 38 40 178 178 178 74 238 238
 238 159 159 116 116 234 234 234 147 147 147 147 147 1 1 190 190 38 38 38
 38 38 40 178 74 74 74 238 238 238 238 105 234 234 234 234 234 147 147 147
 147 147 101 190 190 190 190 190 125 125 125 40 74 74 74 74 238 238 238 238
 105 105 105 81 81 123 147 147 147 147 147 101 190 190 190 190 190 125 125 125
 125 74 74 74 74 74 74 74 182 105 105 105 81 81 81 123 147 147 147 101
 101 190 190 190 190 190 125 125 125 125 74 74 74 238 238 74 74 182 105 105
 105 105 144 144 123 123 101 101 101 101 190 190 190 190 190 125 125 125 188 188
 238 238 238 238 74 182 182 105 105 105 105 144 144 144 123 19 19 19 19 190
 190 190 190 190 125 188 188 188 188 188 238 69 69 69 182 182 105 105 105 124
 124 124 124 124 19 19 19 19 150 150 190 190 11 11 188 188 188 188 188 69
 69 69 69 69 222 222 105 124 124 124 124 124 124 19 19 19 66 66 66 66
 11 11 170 188 188 188 188 208 69 69 69 69 69 222 222 222 124 124 124 124
 124 124 124 19 66 66 66 66 66 66 170 170 170 188 188 208 208 208 69 69
 69 69 183 183 183 124 124 124 124 124 229 229 213 66 66 66 66 66 66 170
 170 170 170 2 208 208 208 208 69 69 183 183 183 183 183 229 229 229 229 229
 229 213 213 66 66 66 66 66 170 170 170 2 2 2 208 208 208 208 127 183
 183 183 183 183 229 229 229 229 229 229 213 213 213 66 66 66 66 2 2 2
 2 2 2 2 208 208 127 127 127 183 183 183 229 229 229 229 229 229 229 229
 213 213 213 66 66 164 2 2 2 2 2 2 2 208 127 127 127 127 127 127
 127 229 229 229 229 229 229 229 229 146 146 213 164 164 72 72 72 72 2 2
 2 2 208 127 127 127 127 127 127 127 229 229 229 229 229 229 229 229 146 146
 213 164 164 72 72 72 72 72 155 155 2 36 36 127 127 127 127 127 127 227
 227 227 176 176 176 229 229 229 229 76 164 164 72 72 72 72 155 155 155 4
 36 36 36 127 127 127 127 63 63 227 227 176 176 176 229 229 229 76 76 76
 80 80 80 80 155 155 155 155 36 36 36 36 36 127 127 63 63 63 63 95
 95 95 95 95 95 76 13 13 13 80 80 80 80 175 155 155 155 36 36 233
 233 233 233 63 63 63 63 63 95 95 95 95 95 95 13 13 13 13 13 80
 80 80 236 179 233 233 233 233 233 233 233 233 63 63 63 63 63 95 95 18
 95 95 95 13 13 13 13 13 236 236 236 236 197 197 233 233 233 233 233 233
 233 63 63 63 63 63 95 95 95 95 95 111 111 13 13 13 13 236 236 236
 236 197 197 220 220 233 233 233 233 233 63 63 63 63 137 95 95 95 95 111
 111 111 13 13 13 13 236 236 236 236 197 197 121 197 220 233 233 233 233 63
 63 63 63 137 137 95 95 95 111 111 111 13 13 13 13 236 71 71 236 197
 121 121 121 220 220 233 233 233 63 116 116 116 116 137 137 15 111 111 111 111
 13 13 13 13 236 71 71 211 211 211 211 211 220 178 178 178 116 116 116 116
 116 116 116 15 15 1 1 1 1 1 13 13 13 236 236 71 211 211 211 211
 211 178 178 178 178 116 116 116 116 116 116 116 116 1 1 1 1 1 1 1
 1 38 38 38 38 211 211 211 211 178 178 178 178 178 116 116 116 116 116 116
 116 116 1 1 1 1 1 1 1 1 38 38 38 38 211 211 211 178 178 178
 178 178 178 116 116 116 116 116 116 116 116 1 1 1 1 1 1 1 1 38
 38 38 38 38 40 178 178 178 178 178 117 117 116 116 116 116 116 116 73 73
 147 147 147 1 1 1 1 1 115 115 115 38 40 40 40 178 178 178 74 238
 238 238 7 73 73 73 73 73 73 147 147 147 147 147 1 1 1 96 115 115
 115 40 40 40 178 178 178 74 238 238 238 7 7 73 73 73 73 73 147 147
 147 147 147 101 101 190 190 190 115 115 40 40 40 40 74 74 74 238 238 238
 238 105 105 105 81 81 123 123 147 147 147 101 101 101 190 190 190 190 33 125
 125 40 40 74 74 74 74 238 74 105 105 105 105 81 81 81 123 123 147 101
 101 101 101 190 190 190 190 33 125 125 188 74 74 74 74 74 74 74 105 105
 105 105 105 144 144 123 123 101 101 101 101 101 190 190 190 190 33 125 188 188
 188 74 74 74 74 74 74 105 105 105 105 105 144 144 144 123 19 19 19 19
 19 150 190 190 11 11 188 188 188 188 188 74 69 69 69 69 105 105 105 105
 105 144 144 144 123 19 19 19 19 150 150 150 11 11 11 188 188 188 188 188
 69 69 69 69 69 105 105 105 105 124 124 124 124 124 19 19 19 150 150 150
 150 11 11 170 188 188 188 188 188 69 69 69 69 69 105 105 105 105 124 124
 124 124 124 19 19 150 150 66 66 150 11 170 170 170 188 188 188 188 69 69
 69 69 52 52 105 105 105 124 124 124 124 229 213 213 213 66 66 66 66 170
 170 170 170 170 188 188 188 208 208 69 52 52 183 183 183 229 229 229 229 229
 229 213 213 213 213 66 66 66 170 170 170 170 170 170 2 208 208 52 52 52
 52 183 27 183 229 229 229 229 229 229 213 213 213 213 213 66 221 170 170 170
 170 2 2 2 2 208 127 127 127 127 27 27 27 229 229 229 229 229 229 229
 213 213 213 213 213 221 72 72 72 72 72 2 2 2 208 127 127 127 127 127
 27 27 229 229 229 229 229 229 229 229 213 213 213 221 221 72 72 72 72 72
 72 2 4 4 70 127 127 127 127 127 27 227 227 227 229 229 229 229 229 213
 213 213 221 72 72 72 72 72 72 72 4 4 4 70 70 127 127 127 127 27
 227 227 227 227 176 229 229 229 229 76 76 76 72 72 72 72 72 72 155 4
 4 4 70 70 127 127 127 127 127 227 227 227 227 176 176 229 229 76 76 76
 76 76 87 87 87 72 175 165 4 4 70 70 70 70 127 127 127 63 227 227
 227 95 95 95 95 95 76 76 76 76 76 87 87 87 175 175 165 165 36 36
 233 70 233 233 63 63 63 63 63 95 95 95 95 95 95 13 13 13 13 13
 236 87 179 179 179 165 233 233 233 233 233 233 233 63 63 63 63 63 95 95
 95 95 95 95 13 13 13 13 13 236 236 236 236 197 197 233 233 233 233 233
 233 233 63 63 63 63 63 95 95 95 95 95 111 111 13 13 13 13 236 236
 236 236 197 197 197 233 233 233 233 233 233 63 63 63 137 137 137 137 137 95
 111 111 111 97 97 97 97 24 24 24 197 197 197 197 197 197 233 233 233 233
 63 63 63 137 137 137 137 137 15 111 111 111 97 97 97 97 24 24 24 197
 197 121 197 197 197 178 233 233 61 61 116 116 137 137 137 137 15 15 111 111
 111 97 97 97 97 24 24 24 197 197 197 197 197 197 178 178 178 116 116 116
 116 116 116 137 15 15 15 1 1 1 97 97 97 97 24 24 24 211 211 211
 211 178 178 178 178 178 116 116 116 116 116 116 116 15 15 15 1 1 1 1
 1 1 24 24 24 24 211 211 211 178 178 178 178 117 117 116 116 116 116 116
 116 116 15 15 15 1 1 1 1 1 1 96 96 96 96 40 40 178 178 178
 178 117 117 117 117 116 116 116 116 116 116 116 15 1 1 1 1 1 1 1
 96 96 115 115 40 40 40 178 178 178 117 117 117 117 116 116 116 116 73 73
 73 73 147 1 1 1 1 1 1 96 96 115 115 40 40 40 40 117 117 117
 117 7 7 7 73 73 73 73 73 73 73 147 147 147 1 1 1 96 96 115
 115 115 40 40 40 40 117 117 74 238 7 7 7 7 73 73 73 73 73 123
 147 147 147 101 101 101 101 96 115 115 115 40 40 40 40 40 117 74 238 7
 7 7 105 105 73 81 81 81 123 123 147 101 101 101 101 101 33 33 33 33
 33 40 40 40 74 74 74 74 238 7 7 105 105 105 81 81 81 123 123 123
 101 101 101 101 101 33 33 33 33 33 188 188 188 74 74 74 74 74 7 105
 105 105 105 105 144 144 123 123 101 101 101 101 101 101 33 33 33 33 33 188
 188 188 188 74 74 74 74 7 105 105 105 105 105 144 144 144 123 19 19 19
 19 19 150 150 11 11 11 188 188 188 188 188 188 69 69 69 69 105 105 105
 105 105 144 144 144 123 19 19 19 19 150 150 150 11 11 11 188 188 188 188
 188 188 69 69 69 69 105 105 105 105 105 144 144 144 124 19 19 19 150 150
 150 150 11 11 11 188 188 188 188 188 188 52 52 52 52 52 105 105 105 105
 124 124 124 124 213 19 150 150 150 150 11 11 11 170 170 188 188 188 188 52
 52 52 52 52 52 105 105 105 124 124 124 229 157 213 213 213 213 66 66 11
 11 170 170 170 170 188 188 188 52 52 52 52 52 52 27 27 27 229 229 229
 229 157 213 213 213 213 221 221 221 11 170 170 170 170 170 188 188 52 52 52
 52 52 27 27 27 27 229 229 229 229 157 213 213 213 213 221 221 221 221 170
 170 170 170 170 2 2 52 52 52 52 27 27 27 27 27 229 229 229 229 229
 229 213 213 213 221 221 221 221 72 72 72 72 72 2 4 4 70 127 127 27
 27 27 27 27 229 229 229 229 229 229 213 213 213 221 221 221 72 72 72 72
 72 72 4 4 4 70 70 127 59 27 27 27 227 227 227 227 229 229 229 229
 76 76 221 221 221 72 72 72 72 72 4 4 4 4 70 70 59 59 59 59
 27 227 227 227 227 229 229 229 229 76 76 76 76 76 72 72 72 72 72 4
 4 4 4 70 70 70 127 127 127 27 227 227 227 227 227 229 229 76 76 76
 76 76 76 87 87 87 175 175 165 4 4 70 70 70 70 70 127 127 63 227
 227 227 227 227 95 88 76 76 76 76 76 76 87 87 87 175 175 165 165 152
 70 70 70 70 70 63 63 63 63 227 95 95 95 95 88 88 76 76 76 76
 76 87 87 179 179 179 165 165 152 70 233 70 233 233 63 63 63 63 63 95
 95 95 95 88 88 88 76 13 97 24 24 179 179 179 179 179 165 233 233 233
 233 233 233 63 63 63 63 137 137 95 95 95 88 88 111 97 97 97 24 24
 24 179 179 121 197 197 197 233 233 233 233 233 61 61 137 137 137 137 137 137
 88 88 88 97 97 97 97 24 24 24 24 179 121 121 197 197 197 233 233 233
 61 61 61 61 137 137 137 137 137 15 15 111 97 97 97 97 24 24 24 24
 24 121 121 197 197 197 178 233 61 61 61 61 61 137 137 137 137 15 15 15
 111 97 97 97 97 24 24 24 24 24 121 197 197 197 197 178 178 61 61 61
 61 116 116 137 137 15 15 15 15 1 97 97 97 97 24 24 24 24 24 197
 197 197 178 178 178 178 61 61 61 116 116 116 116 15 15 15 15 15 1 1
 1 1 97 24 24 24 24 24 40 178 178 178 178 117 117 117 61 61 116 116
 116 116 116 15 15 15 15 1 1 1 1 115 115 96 96 96 40 40 40 178
 178 178 117 117 117 61 116 116 116 116 116 116 15 15 15 1 1 1 1 1
 115 115 96 96 115 40 40 40 40 178 117 117 117 117 117 116 116 116 116 73
 73 73 73 147 1 1 1 1 1 115 115 96 115 115 40 40 40 40 117 117
 117 117 7 7 7 73 73 73 73 73 73 73 147 147 147 1 101 1 96 96
 96 115 115 40 40 40 40 117 117 117 7 7 7 7 7 73 73 73 73 73
 123 123 147 101 101 101 101 96 96 96 115 115 40 40 40 40 40 117 74 7
 7 7 7 7 105 73 73 81 81 123 123 181 101 101 101 101 101 33 33 33
 33 33 40 40 40 40 74 74 7 7 7 7 105 105 105 81 81 81 123 123
 181 101 101 101 101 101 33 33 33 33 33 33 40 40 74 74 74 7 7 7
 7 105 105 105 105 144 144 123 123 181 101 101 101 101 101 33 33 33 33 33
 33 188 188 188 74 74 7 7 7 105 105 105 105 105 144 144 144 123 19 19
 19 19 19 150 11 11 11 11 11 188 188 188 188 188 52 52 69 7 105 105
 105 105 105 144 144 144 123 19 19 19 19 150 150 11 11 11 11 11 188 188
 188 188 188 52 52 52 52 105 105 105 105 105 144 144 144 123 19 19 19 150
 150 150 11 11 11 11 11 188 188 188 188 52 52 52 52 52 52 105 105 105
 105 124 124 157 157 157 19 150 150 150 150 11 11 11 11 170 188 188 188 188
 52 52 52 52 52 52 27 105 105 105 124 157 157 157 157 213 213 221 221 221
 11 11 11 170 170 170 188 188 188 52 52 52 52 52 27 27 27 27 27 229
 229 157 157 157 213 213 221 221 221 221 11 170 170 170 170 170 188 52 52 52
 52 52 52 27 27 27 27 27 229 229 157 157 157 213 213 221 221 221 221 221
 170 170 170 170 170 2 52 52 52 52 52 27 27 27 27 27 229 229 229 229
 157 157 157 213 221 221 221 221 221 72 72 72 72 72 72 4 52 4 70 27
 27 27 27 27 27 229 229 229 229 229 157 157 213 221 221 221 221 221 72 72
 72 72 72 4 4 4 4 70 59 27 27 27 27 27 227 227 227 229 229 229
 76 76 76 76 76 221 221 72 72 72 72 4 4 4 4 70 70 59 59 59
 27 27 227 227 227 227 227 229 229 76 76 76 76 76 76 87 87 87 87 165
 4 4 4 4 70 70 70 59 59 27 27 227 227 227 227 227 229 76 76 76
 76 76 76 76 87 87 87 175 87 165 4 4 4 70 70 70 70 127 27 27
 227 227 227 227 227 88 88 76 76 76 76 76 76 87 87 87 175 87 165 165
 152 152 70 70 70 70 70 63 63 227 227 227 95 88 88 88 88 76 76 76
 76 76 87 87 179 179 87 165 165 152 152 70 70 70 70 70 63 63 137 137
 137 95 88 88 88 88 88 76 76 76 24 24 179 179 179 179 179 165 152 233
 233 233 233 233 63 63 63 137 137 137 137 88 88 88 88 88 97 97 97 24
 24 24 179 179 179 179 197 197 233 233 233 61 61 61 61 61 137 137 137 137
 137 88 88 88 97 97 97 97 24 24 24 24 179 179 121 197 197 197 117 61
 61 61 61 61 61 137 137 137 137 137 15 15 88 97 97 97 97 24 24 24
 24 24 121 121 197 197 197 117 61 61 61 61 61 61 137 137 137 15 15 15
 15 15 97 97 97 97 24 24 24 24 24 121 197 197 197 197 117 117 61 61
 61 61 61 219 137 137 15 15 15 15 54 54 54 54 97 24 24 24 24 24
 197 197 197 178 178 117 117 61 61 61 61 61 116 116 15 15 15 15 15 54
 54 54 54 54 24 24 24 24 24 40 40 178 178 178 117 117 117 61 61 61
 116 116 116 116 15 15 15 54 54 54 54 54 54 115 115 96 96 40 40 40
 40 178 117 117 117 117 61 61 61 116 116 116 116 15 15 15 54 54 54 54
 54 115 115 115 96 96 40 40 40 40 117 117 117 117 117 61 61 61 116 73
 73 73 73 73 54 54 54 54 54 54 115 115 115 96 115 40 40 40 40 117
 117 117 117 7 7 7 73 73 73 73 73 73 73 26 54 54 54 54 54 115
 96 96 96 115 40 40 40 40 40 117 117 7 7 7 7 7 73 73 73 73
 73 26 26 147 101 101 101 31 96 96 96 96 115 40 40 40 40 40 117 7
 7 7 7 7 7 73 73 73 73 26 26 181 181 181 101 101 31 31 33 33
 33 33 33 40 40 40 40 117 7 7 7 7 7 7 105 105 81 81 26 26
 181 181 181 101 101 31 31 33 33 33 33 33 40 40 40 40 74 7 7 7
 7 7 105 105 105 105 144 144 26 181 181 181 101 101 101 31 33 33 33 33
 33 33 188 188 188 201 52 7 7 7 7 105 105 105 105 144 144 144 123 19
 19 19 19 19 11 11 11 11 11 11 188 188 188 188 188 52 52 52 7 105
 105 105 105 105 144 144 144 123 19 19 19 19 150 11 11 11 11 11 11 188
 188 188 188 188 52 52 52 52 52 105 105 105 105 144 144 144 144 19 19 19
 150 150 11 11 11 11 11 11 188 188 188 188 52 52 52 52 52 52 105 105
 105 105 144 144 157 157 157 157 221 150 221 11 11 11 11 11 11 188 188 188
 188 52 52 52 52 52 52 52 27 105 105 144 157 157 157 157 157 221 221 221
 221 11 11 11 11 170 170 188 188 52 52 52 52 52 52 27 27 27 27 27
 157 157 157 157 157 157 221 221 221 221 221 11 11 170 170 170 170 188 52 52
 52 52 52 52 27 27 27 27 27 229 229 157 157 157 157 221 221 221 221 221
 221 11 170 170 170 170 52 52 52 52 52 52 27 27 27 27 27 27 229 229