# vtk DataFile Version 2.0
Data set from ImportExport Version 6.5.171.b0b162591
ASCII

DATASET RECTILINEAR_GRID
DIMENSIONS 30 30 30
X_COORDINATES 30 float
-1.250000 1.250000 3.750000 6.250000 8.750000 11.250000 13.750000 16.250000 18.750000 21.250000 23.750000 26.250000 28.750000 31.250000 33.750000 36.250000 38.750000 41.250000 43.750000 46.250000 48.750000 
51.250000 53.750000 56.250000 58.750000 61.250000 63.750000 66.250000 68.750000 71.250000 
Y_COORDINATES 30 float
-1.250000 1.250000 3.750000 6.250000 8.750000 11.250000 13.750000 16.250000 18.750000 21.250000 23.750000 26.250000 28.750000 31.250000 33.750000 36.250000 38.750000 41.250000 43.750000 46.250000 48.750000 
51.250000 53.750000 56.250000 58.750000 61.250000 63.750000 66.250000 68.750000 71.250000 
Z_COORDINATES 30 float
-1.250000 1.250000 3.750000 6.250000 8.750000 11.250000 13.750000 16.250000 18.750000 21.250000 23.750000 26.250000 28.750000 31.250000 33.750000 36.250000 38.750000 41.250000 43.750000 46.250000 48.750000 
51.250000 53.750000 56.250000 58.750000 61.250000 63.750000 66.250000 68.750000 71.250000 
CELL_DATA 24389
SCALARS FeatureIds int 1
LOOKUP_TABLE default
 110 110 110 110 50 50 153 153 153 153 153 142 142 142 15 15 15 15 15 15
 15 217 217 217 217 217 217 217 217 110 110 110 110 50 50 50 65 153 153 153
 153 153 153 15 15 15 15 15 15 15 217 217 217 217 217 217 217 217 110 110
 110 110 50 50 50 50 65 65 65 65 65 65 176 176 176 176 176 176 176 217
 217 217 217 217 217 217 110 110 110 110 110 110 50 50 50 65 65 65 65 65
 65 176 176 176 176 176 176 176 73 73 217 217 217 217 110 110 110 110 110 110
 50 50 50 50 50 65 65 65 65 47 47 47 176 176 176 176 176 73 73 73
 73 73 217 110 110 110 110 110 110 50 50 50 50 50 65 65 65 65 47 47
 47 47 176 176 176 176 73 73 73 73 73 104 104 104 104 110 110 110 50 50
 50 50 50 65 65 65 65 6 6 6 6 6 176 176 73 73 73 73 73 73
 104 104 104 104 104 163 163 163 50 50 50 50 65 65 65 6 6 6 6 6
 6 6 176 247 247 247 247 247 247 247 104 104 104 214 163 163 163 163 50 50
 50 65 65 65 6 6 6 6 6 6 6 6 247 247 247 247 247 247 247 104
 104 214 214 163 163 163 163 163 163 50 147 87 36 36 6 6 6 6 63 63
 63 48 48 48 48 247 247 247 104 104 214 214 163 163 163 163 163 163 147 147
 147 36 36 36 36 63 63 63 63 63 63 48 48 48 48 48 30 9 9 214
 214 163 163 163 163 163 163 147 147 147 36 36 36 36 63 63 63 63 63 63
 165 48 48 48 48 9 9 9 9 163 163 163 163 163 163 147 147 147 147 36
 36 36 36 63 63 63 63 63 63 165 165 165 165 9 9 9 9 9 9 163
 163 163 163 163 147 147 147 147 36 36 36 36 36 63 63 63 63 63 165 165
 239 127 127 9 9 9 9 9 163 163 163 163 124 124 124 147 147 36 36 36
 36 111 111 7 7 63 165 165 165 239 127 127 127 9 9 9 9 143 163 143
 124 124 124 124 124 131 36 36 36 111 111 111 111 7 152 152 165 239 127 127
 127 127 127 127 9 1 143 143 143 124 124 124 124 131 131 131 36 111 111 111
 111 111 152 152 152 152 127 127 127 127 127 127 127 1 1 1 143 115 115 115
 115 131 131 131 131 131 111 111 111 111 152 152 152 152 152 127 127 127 127 127
 127 127 1 1 1 1 115 115 115 115 115 131 131 131 131 111 111 111 111 152
 152 152 152 152 141 127 127 127 127 127 1 1 1 28 28 28 115 115 115 115
 115 115 115 115 111 111 111 111 152 152 152 152 141 141 141 141 141 127 1 1
 28 28 28 28 28 115 115 115 115 139 139 139 139 103 103 103 219 219 219 219
 219 141 141 141 141 141 141 1 1 28 28 28 28 89 89 115 115 139 139 139
 139 139 103 103 103 219 219 219 219 219 141 141 141 141 141 141 28 28 28 28
 28 89 89 89 144 144 183 139 183 183 103 103 103 103 32 219 219 219 219 141
 141 141 141 141 141 28 28 182 28 89 89 89 89 89 183 183 183 183 103 103
 103 103 103 32 32 32 219 219 141 141 141 141 141 141 182 182 182 182 89 89
 89 89 89 183 183 183 183 103 103 103 103 103 32 32 32 32 38 141 185 185
 185 185 182 182 182 182 182 182 89 89 89 89 183 183 183 103 103 103 103 103
 103 32 32 32 32 32 185 185 185 185 185 182 182 182 182 182 182 89 89 89
 89 183 183 113 113 103 103 103 103 103 32 32 32 32 38 185 185 185 217 217
 217 182 182 182 182 182 89 89 89 89 113 113 113 113 142 103 103 103 103 103
 32 32 32 38 217 217 217 217 217 217 217 182 182 182 182 89 89 89 89 113
 113 113 113 142 142 103 103 103 103 32 32 32 38 217 217 217 217 217 217 217
 182 207 215 215 215 153 153 153 153 153 153 153 153 153 153 15 15 15 15 15
 15 217 217 217 217 217 217 217 217 207 215 215 215 215 50 50 50 153 153 153
 153 153 153 153 176 176 176 176 176 176 176 217 217 217 217 217 217 217 207 215
 215 215 215 50 50 50 50 65 65 65 65 65 65 176 176 176 176 176 176 176
 68 217 217 217 217 217 207 207 215 215 215 215 50 50 50 50 65 65 65 65
 65 65 233 176 176 176 176 176 176 68 217 217 217 217 217 207 110 215 215 215
 215 50 50 50 50 50 65 65 65 65 233 233 233 176 176 176 176 176 73 73
 73 73 73 104 104 104 104 215 215 215 50 50 50 50 50 65 65 65 65 233
 233 233 233 176 176 176 176 73 73 73 73 73 104 104 104 104 104 215 215 50
 50 50 50 50 65 65 65 65 233 233 233 233 233 176 176 176 73 73 73 73
 73 104 104 104 104 104 104 163 163 50 50 50 50 65 65 65 245 245 245 245
 245 245 245 244 244 247 247 247 247 247 104 104 104 104 214 163 163 163 163 50
 50 50 65 87 87 245 245 245 245 245 245 245 244 244 244 247 247 247 247 104
 104 104 214 214 163 163 163 163 163 199 87 87 87 36 36 245 245 245 245 245
 63 244 244 244 48 48 247 30 104 104 104 214 214 243 243 163 163 163 163 218
 218 36 36 36 36 36 36 63 63 63 63 244 244 48 48 48 30 30 30 30
 214 214 163 243 163 163 163 163 218 218 36 36 36 36 36 36 63 63 63 63
 165 165 165 165 165 30 30 30 9 214 214 163 163 163 163 163 163 147 147 36
 36 36 36 36 36 63 63 63 63 165 165 165 165 165 30 30 30 9 9 163
 163 163 163 163 163 124 147 147 147 36 36 36 36 36 63 63 63 165 165 165
 165 239 239 127 127 9 9 9 163 163 163 163 163 124 124 124 124 124 36 36
 36 36 36 111 7 7 165 165 165 165 239 239 127 127 127 9 9 143 143 143
 143 143 124 124 124 124 131 36 36 36 36 111 111 111 152 152 165 165 239 239
 127 127 127 127 127 1 143 143 143 143 124 124 124 124 131 131 131 36 111 111
 111 111 111 152 152 152 239 239 127 127 127 127 127 127 1 1 1 143 126 115
 115 115 131 131 131 131 131 111 111 111 111 152 152 152 152 152 239 127 127 127
 127 127 127 1 1 1 1 126 115 115 115 115 131 131 131 131 131 111 111 111
 152 152 152 152 152 127 127 127 127 127 127 1 1 1 1 1 115 115 115 115
 115 115 115 131 131 131 3 3 152 152 152 152 152 141 141 141 141 127 127 127
 1 1 28 28 28 28 115 115 115 115 139 139 139 139 139 103 103 3 219 219
 219 141 141 141 141 141 141 141 127 1 28 28 28 28 89 89 115 115 139 139
 139 139 139 103 103 103 3 219 219 219 141 141 141 141 141 141 141 141 28 28
 28 28 89 89 89 144 144 139 139 139 103 103 103 103 103 103 219 219 219 141
 141 141 141 141 141 141 28 28 28 28 89 89 89 89 144 144 144 183 183 103
 103 103 103 103 103 38 38 38 38 141 141 141 141 141 141 182 182 182 182 89
 89 89 89 144 144 144 183 103 103 103 103 103 103 103 38 38 38 38 38 141
 141 141 141 141 182 182 182 182 89 89 89 89 144 144 144 103 103 103 103 103
 103 103 103 38 38 38 38 38 185 185 185 217 217 182 182 182 182 182 89 89
 89 144 144 144 103 103 103 103 103 103 103 103 103 38 38 38 38 185 217 217
 217 217 182 182 182 182 182 89 89 89 144 144 113 113 103 103 103 103 103 103
 103 103 38 38 38 38 217 217 217 217 217 217 182 182 182 182 89 89 89 144
 153 153 153 103 103 103 103 103 103 103 103 38 38 38 217 217 217 217 217 217
 217 217 207 207 215 215 215 153 153 153 153 153 153 153 153 153 176 176 15 15
 15 15 68 217 217 217 217 217 217 207 207 215 215 215 215 215 50 50 153 153
 153 153 65 65 65 176 176 176 176 176 176 68 68 217 217 217 217 207 207 207
 215 215 215 215 215 50 50 50 65 65 65 65 65 65 176 176 176 176 176 176
 68 68 68 217 217 217 207 207 207 215 215 215 215 215 50 50 50 65 65 65
 65 65 233 233 233 176 176 176 176 68 68 68 54 217 217 207 207 215 215 215
 215 215 215 50 50 50 65 65 65 65 65 233 233 233 233 176 176 176 68 68
 54 54 54 54 207 104 215 104 215 215 215 215 50 50 50 50 65 65 65 65
 233 233 233 233 233 176 176 68 68 54 54 54 104 104 104 104 104 215 215 215
 50 50 50 50 50 65 65 65 233 233 233 245 245 233 233 176 244 54 54 54
 54 104 104 104 104 104 104 215 163 163 50 50 50 50 65 87 65 245 245 245
 245 245 245 245 244 244 244 244 54 54 104 104 104 104 104 104 163 163 163 163
 199 199 87 87 87 87 245 245 245 245 245 245 245 244 244 244 244 244 54 104
 104 104 104 214 214 163 163 163 163 199 199 87 87 87 87 245 245 245 245 245
 245 245 244 244 244 244 244 244 30 30 30 30 214 214 163 163 163 163 163 199
 218 218 218 218 36 36 245 245 245 245 63 244 244 244 244 244 30 30 30 30
 30 214 214 163 163 163 163 163 199 218 218 218 36 36 36 36 36 63 63 63
 165 165 165 165 165 165 30 30 30 30 214 214 163 163 163 163 163 218 218 218
 36 36 36 36 36 36 63 17 63 165 165 165 165 165 165 30 30 30 30 214
 163 163 163 163 163 163 124 124 124 36 36 36 36 36 36 17 17 17 165 165
 165 165 239 239 239 30 30 30 133 163 143 143 143 143 124 124 124 124 124 36
 36 36 36 36 111 17 165 165 165 165 165 239 239 127 127 127 127 133 143 143
 143 143 143 124 124 124 100 100 36 36 36 36 36 111 17 152 165 165 165 239
 239 239 127 127 127 127 133 143 143 143 143 143 124 124 124 100 100 42 42 36
 111 111 111 152 152 152 152 239 239 239 127 127 127 127 127 1 126 126 126 126
 126 115 115 100 100 100 42 42 42 111 111 111 152 152 152 152 239 239 127 127
 127 127 127 127 1 1 126 126 126 115 115 115 115 100 100 42 42 42 3 3
 3 152 152 152 152 152 127 127 127 127 127 127 1 1 1 1 126 126 115 115
 115 115 115 100 42 42 3 3 3 3 152 152 152 152 141 141 141 127 127 127
 127 1 1 28 28 126 126 115 115 115 115 139 139 139 139 3 3 3 3 3
 178 178 178 141 141 141 141 141 127 127 1 28 28 28 28 89 89 144 144 139
 139 139 139 139 3 3 3 3 3 178 178 178 141 141 141 141 141 141 28 28
 28 28 28 89 89 89 144 144 144 139 139 103 103 103 103 3 3 178 178 178
 178 141 141 141 141 141 141 28 28 227 28 89 89 89 89 144 144 144 144 103
 103 103 103 103 103 103 38 38 38 38 141 141 141 141 141 141 227 227 227 227
 89 89 89 89 144 144 144 144 103 103 103 103 103 103 103 38 38 38 38 38
 141 141 141 141 141 227 227 227 227 89 89 89 89 144 144 144 103 103 103 103
 103 103 103 103 38 38 38 38 38 38 217 217 217 217 227 227 182 182 89 89
 89 89 144 144 144 103 103 103 103 103 103 103 103 38 38 38 38 38 38 217
 217 217 217 217 182 182 182 89 89 89 89 144 144 144 103 103 103 103 103 103
 103 103 38 38 38 38 38 217 217 217 217 217 217 217 182 182 89 89 89 89
 144 153 153 153 103 103 103 103 103 103 103 38 38 38 38 38 217 217 217 217
 217 217 207 207 207 215 215 215 153 153 153 153 153 153 108 108 108 41 41 41
 41 41 68 68 68 217 217 217 217 207 207 207 207 215 215 215 215 50 50 153
 153 153 65 65 65 65 41 41 176 176 176 68 68 68 68 217 217 217 207 207
 207 215 215 215 215 215 50 50 65 65 65 65 65 65 233 233 176 176 176 176
 68 68 68 68 68 217 207 207 207 207 215 215 215 215 215 50 50 50 65 65
 65 65 65 233 233 233 233 176 176 68 68 68 68 54 54 54 207 207 215 215
 215 215 215 215 50 50 50 65 65 65 65 65 233 233 233 233 233 176 68 68
 68 54 54 54 54 104 104 215 104 215 215 215 215 50 50 50 65 65 65 65
 233 233 233 233 233 233 176 68 68 68 54 54 54 54 104 104 104 104 215 215
 215 222 50 50 50 50 65 65 65 233 233 233 245 245 233 233 244 244 54 54
 54 54 54 104 104 104 104 104 215 222 222 199 199 199 87 87 87 87 245 245
 245 245 245 245 245 244 244 244 244 54 54 54 104 104 104 104 104 163 163 163
 199 199 199 87 87 87 87 245 245 245 245 245 245 244 244 244 244 244 244 54
 104 104 104 104 30 214 163 163 163 199 199 199 87 87 87 87 87 245 245 245
 245 245 244 244 244 244 244 244 244 30 30 30 30 30 214 163 163 163 163 199
 199 218 218 218 218 218 36 245 245 245 17 244 244 244 244 244 244 30 30 30
 30 30 30 214 163 163 163 163 199 199 218 218 218 218 36 36 36 132 17 17
 17 165 165 165 165 165 30 30 30 30 30 30 214 163 163 163 163 163 218 218
 218 218 218 36 36 36 132 17 17 17 165 165 165 165 165 30 30 30 30 30
 30 163 163 163 143 143 143 218 218 218 218 36 36 36 36 132 17 17 17 165
 165 165 165 239 239 239 30 30 30 133 133 143 143 143 143 143 124 124 124 100
 36 36 36 36 132 17 17 17 165 165 165 165 239 239 239 127 127 30 133 133
 143 143 143 143 143 100 100 100 100 42 36 36 36 132 17 17 80 80 165 165
 239 239 239 127 127 127 127 133 133 143 143 143 143 100 100 100 100 100 42 42
 36 36 132 17 80 80 80 80 239 239 239 127 127 127 127 127 133 126 126 126
 126 126 115 100 100 100 42 42 42 42 42 3 80 80 80 80 80 80 239 127
 127 127 127 127 127 1 126 126 126 126 126 115 115 100 100 42 42 42 42 3
 3 3 80 80 80 80 80 127 127 127 127 127 127 127 1 1 126 126 126 126
 115 115 115 100 210 42 42 3 3 3 3 3 80 80 80 80 31 31 127 127
 127 127 1 1 1 126 126 126 126 115 115 115 115 210 210 42 3 3 3 3
 3 178 178 178 31 31 31 31 31 127 127 1 28 28 126 126 126 126 144 144
 144 139 139 139 3 3 3 3 3 3 178 178 178 31 31 31 31 31 127 127
 28 227 227 227 89 89 144 144 144 144 144 139 103 103 3 3 3 3 178 178
 178 178 31 31 31 31 31 31 227 227 227 227 227 89 89 144 144 144 144 144
 103 103 103 103 3 3 3 38 178 178 178 178 31 31 31 31 227 227 227 227
 227 227 89 89 144 144 144 144 144 103 103 103 103 103 103 103 38 38 38 38
 38 31 31 31 31 227 227 227 227 227 227 89 89 144 144 144 144 144 103 103
 103 103 103 103 103 38 38 38 38 38 38 171 171 171 171 227 227 227 227 227
 89 89 144 144 144 144 144 103 103 103 103 103 103 103 38 38 38 38 38 38
 171 171 171 171 171 227 227 227 227 89 89 144 144 144 144 108 108 108 103 103
 103 103 103 38 38 38 38 38 38 171 171 171 171 171 171 242 242 242 242 89
 144 144 144 144 108 108 108 103 103 103 103 41 38 38 38 38 38 217 217 217
 217 217 207 207 207 207 215 11 11 11 153 153 153 153 108 108 108 108 41 41
 41 41 41 68 68 68 68 171 171 171 207 207 207 207 215 215 215 11 11 50
 153 153 153 65 108 108 90 41 41 41 41 41 68 68 68 68 68 217 207 207
 207 207 215 215 215 215 215 11 50 65 65 65 65 65 90 90 233 41 41 176
 68 68 68 68 68 68 68 207 207 207 207 215 215 215 215 215 50 50 50 65
 65 65 65 90 233 233 233 233 233 68 68 68 68 68 54 54 54 207 207 215
 215 215 215 215 215 50 50 50 65 65 65 65 233 233 233 233 233 233 176 68
 68 68 54 54 54 54 104 104 215 215 215 215 215 222 222 50 50 65 65 65
 65 233 233 233 233 233 233 233 68 68 68 54 54 54 54 104 104 104 104 215
 215 222 222 199 199 199 199 87 87 87 233 233 245 245 233 233 233 244 244 54
 54 54 54 54 104 104 104 104 104 222 222 222 199 199 199 199 87 87 87 245
 245 245 245 245 245 244 244 244 244 244 54 54 54 104 104 104 104 104 222 222
 199 199 199 199 87 87 87 87 87 245 245 245 245 245 244 244 244 244 244 244
 244 30 30 104 104 30 30 163 163 199 199 199 199 87 87 87 87 87 245 245
 245 245 245 244 244 244 244 244 244 244 30 30 30 30 30 30 163 163 163 199
 199 199 218 218 218 218 218 224 245 245 245 17 244 244 244 244 244 244 30 30
 30 30 30 30 30 163 163 163 199 199 199 218 218 218 218 218 36 132 132 17
 17 17 244 244 244 244 244 30 30 30 30 30 30 30 163 163 163 163 199 199
 218 218 218 218 237 237 132 132 17 17 17 17 165 165 165 165 30 30 30 30
 30 30 133 133 143 143 143 199 199 218 218 218 237 237 237 132 132 17 17 17
 17 165 165 165 239 239 30 30 30 30 133 133 133 143 143 143 143 100 100 218
 237 237 237 237 132 132 17 17 17 17 165 165 165 239 239 239 30 30 30 133
 133 133 143 143 143 143 100 100 100 100 42 237 237 132 132 17 17 80 80 80
 165 239 239 239 127 127 127 133 133 133 133 143 143 126 126 100 100 100 100 42
 42 42 132 132 80 80 80 80 80 80 239 239 127 127 127 127 127 133 126 126
 126 126 126 126 100 100 100 42 42 42 42 42 3 80 80 80 80 80 80 239
 127 127 127 127 127 127 126 126 126 126 126 126 126 210 210 210 42 42 42 42
 3 3 3 80 80 80 80 80 127 127 127 127 127 127 127 126 126 126 126 126
 126 126 210 210 210 210 210 42 3 3 3 3 3 80 80 80 80 31 31 127
 127 127 127 127 126 126 126 126 126 126 126 115 210 210 210 210 3 3 3 3
 3 3 178 178 178 31 31 31 31 31 127 127 127 227 126 126 126 126 126 144
 144 144 210 210 210 3 3 3 3 3 3 178 178 178 178 31 31 31 31 127
 227 227 227 227 227 126 126 144 144 144 144 144 210 3 3 3 3 3 3 178
 178 178 178 178 31 31 31 31 31 227 227 227 227 227 227 89 144 144 144 144
 144 144 103 3 3 3 3 3 178 178 178 178 178 31 31 31 31 227 227 227
 227 227 227 227 89 144 144 144 144 144 103 103 103 3 3 3 3 38 38 38
 38 38 31 31 31 171 227 227 227 227 227 227 227 89 144 144 144 144 144 108
 108 103 103 103 103 103 38 38 38 38 38 38 171 171 171 171 227 227 227 227
 227 227 70 144 144 144 144 108 108 108 108 103 103 103 38 38 38 38 38 38
 38 171 171 171 171 171 227 227 227 227 242 70 70 144 144 108 108 108 108 108
 108 103 103 41 38 38 38 38 38 38 171 171 171 171 171 227 242 242 242 242
 70 70 144 144 108 108 108 108 108 108 41 41 41 41 38 38 38 38 171 171
 171 171 171 207 207 207 242 11 11 11 11 11 5 5 5 5 108 108 108 41
 41 41 41 41 41 68 68 68 171 171 171 171 207 207 207 215 11 11 11 11
 11 153 153 5 5 108 90 90 41 41 41 41 41 68 68 68 68 68 171 207
 207 207 207 215 215 11 11 11 11 11 65 65 65 65 90 90 90 90 41 41
 41 68 68 68 68 68 68 68 207 207 207 207 215 215 11 11 11 11 11 50
 65 65 65 90 90 90 90 233 233 168 68 68 68 68 68 54 54 54 207 207
 215 215 215 215 11 11 11 50 145 145 65 65 90 90 90 233 233 233 168 168
 68 68 68 54 54 54 54 54 104 215 215 215 222 222 222 222 145 145 145 145
 145 90 90 233 233 233 233 168 168 68 68 68 54 54 54 54 104 104 104 104
 222 222 222 222 222 145 145 145 145 145 145 233 233 245 233 168 168 168 244 244
 54 54 54 54 54 104 104 104 104 222 222 222 222 199 199 199 145 87 87 87
 224 245 245 245 245 168 168 244 244 244 244 54 54 54 104 104 104 30 222 222
 222 222 199 199 199 199 87 87 87 224 224 224 245 245 245 244 244 244 244 244
 244 244 30 30 30 30 30 30 30 222 199 199 199 199 87 87 87 87 224 224
 224 224 245 244 244 244 244 244 244 244 244 30 30 30 30 30 30 30 163 199
 199 199 199 199 218 218 218 224 224 224 224 17 17 244 244 244 244 244 244 30
 30 30 30 30 30 30 30 163 199 199 199 199 218 218 218 218 224 224 132 132
 132 17 17 244 244 244 244 244 30 30 30 30 30 30 30 30 163 163 199 199
 199 218 218 218 218 237 237 132 132 132 17 17 17 165 165 244 244 30 30 30
 30 30 30 133 133 133 143 21 199 199 218 218 237 237 237 237 132 132 132 17
 17 17 165 165 165 239 30 30 30 30 30 133 133 133 133 143 143 21 100 218
 218 237 237 237 237 132 132 132 17 17 17 165 165 165 239 239 239 30 30 133
 133 133 133 133 143 143 143 100 100 100 237 237 237 237 237 132 17 17 80 80
 80 125 239 239 127 127 127 127 133 133 133 133 126 126 126 126 100 100 100 100
 42 237 237 237 132 80 80 80 80 80 80 239 157 127 127 127 127 133 133 126
 126 126 126 126 126 210 210 210 100 42 42 42 237 3 80 80 80 80 80 80
 157 157 157 127 127 127 127 126 126 126 126 126 126 126 210 210 210 210 42 42
 3 3 3 3 80 80 80 80 80 157 157 157 127 127 127 127 126 126 126 126
 126 126 126 210 210 210 210 210 42 3 3 3 3 3 80 80 80 80 157 157
 127 127 127 127 127 126 126 126 126 126 126 126 210 210 210 210 210 3 3 3
 3 3 3 178 178 178 178 31 31 31 127 127 127 127 227 126 126 126 126 126
 106 106 210 210 210 210 3 3 3 3 3 3 178 178 178 178 31 31 31 31
 31 227 227 227 227 227 126 126 126 106 106 106 106 210 210 3 3 3 3 3
 3 178 178 178 178 31 31 31 31 227 227 227 227 227 227 227 232 106 106 106
 106 106 106 120 3 3 3 3 3 178 178 178 178 178 31 31 31 31 227 227
 227 227 227 227 227 70 70 106 106 106 106 106 120 120 120 120 3 3 38 38
 38 38 38 31 31 171 171 227 227 227 227 227 227 227 70 70 144 144 144 108
 108 108 120 120 120 120 3 38 38 38 38 38 38 171 171 171 171 227 227 227
 227 242 242 70 70 70 144 144 108 108 108 108 120 120 120 38 38 38 38 38
 38 38 171 171 171 171 171 227 242 242 242 242 70 70 70 70 108 108 108 108
 108 108 120 41 41 38 117 117 117 38 171 171 171 171 171 171 227 242 242 242
 242 70 70 70 70 108 108 108 108 108 108 108 41 41 41 117 117 117 117 171
 171 171 171 171 171 207 242 242 242 11 11 11 11 5 5 5 5 5 5 5
 41 41 41 41 117 117 117 68 68 189 189 189 189 189 207 11 11 11 11 11
 11 11 11 5 5 5 5 90 90 90 41 41 41 117 68 68 68 68 68 189
 189 189 207 207 215 11 11 11 11 11 11 11 5 5 5 90 90 90 90 90
 41 41 68 68 68 68 68 68 68 189 189 207 207 215 11 11 11 11 11 11
 145 65 65 90 90 90 90 90 90 168 168 168 68 68 68 68 68 54 54 54
 207 215 215 222 222 222 222 222 222 145 145 145 90 90 90 90 90 90 168 168
 168 68 68 68 68 54 54 54 54 104 215 222 222 222 222 222 222 145 145 145
 145 145 90 90 90 90 168 168 168 168 168 68 68 54 54 54 54 54 104 104
 222 222 222 222 222 222 145 145 145 145 145 90 90 90 245 168 168 168 168 168
 244 54 54 54 54 54 104 104 104 222 222 222 222 222 222 145 145 145 145 87
 224 224 224 224 168 168 168 168 244 244 244 244 54 54 54 54 104 104 30 222
 222 222 222 199 199 145 145 87 87 224 224 224 224 224 245 168 244 244 244 244
 244 244 244 30 30 30 30 30 30 222 222 222 199 199 199 87 87 87 87 224
 224 224 224 224 244 244 244 244 244 244 244 244 30 30 30 30 30 30 30 222
 199 199 199 199 87 87 87 87 224 224 224 224 224 17 244 244 244 244 244 244
 30 30 30 30 30 30 30 30 102 199 199 199 199 218 218 218 218 224 224 224
 132 132 17 17 244 244 244 244 244 30 30 30 30 30 102 102 102 102 21 21
 199 199 218 218 218 237 237 237 132 132 132 17 17 17 244 244 244 244 30 30
 30 30 30 102 102 102 102 102 21 21 21 218 218 237 237 237 237 132 132 132
 17 17 17 125 125 125 125 30 30 30 30 30 133 133 102 102 102 21 21 21
 18 237 237 237 237 237 237 132 132 17 17 17 125 125 125 125 239 30 30 30
 30 133 133 133 133 143 21 21 18 18 100 237 237 237 237 237 132 132 17 80
 80 125 125 125 125 127 127 127 30 133 133 133 133 126 126 126 18 18 18 96
 96 237 237 237 237 132 80 80 80 80 80 125 125 157 157 127 127 127 133 133
 126 126 126 126 126 18 18 210 210 96 96 96 237 237 3 80 80 80 80 80
 80 157 157 157 127 127 127 133 126 126 126 126 126 126 126 210 210 210 210 96
 96 3 3 3 3 80 80 80 80 80 157 157 157 127 127 127 127 126 126 126
 126 126 126 126 210 210 210 210 210 3 3 3 3 3 3 58 80 80 80 157
 157 157 127 127 127 2 126 126 126 126 126 126 126 210 210 210 210 210 3 3
 3 3 3 3 58 58 58 58 31 31 31 127 127 2 2 137 137 126 126 126
 126 106 106 210 210 210 210 3 3 3 3 3 3 58 58 58 58 31 31 31
 31 31 2 227 137 137 137 232 232 126 106 106 106 221 221 221 3 3 3 3
 3 3 58 58 58 58 31 31 31 31 227 227 227 227 137 232 232 232 70 106
 106 106 106 221 120 3 3 3 3 3 3 178 178 178 178 31 31 31 189 227
 227 227 227 227 227 232 70 70 70 106 106 106 120 120 120 120 120 120 3 3
 178 178 178 178 189 189 189 189 189 227 227 227 227 227 70 70 70 70 70 70
 108 108 120 120 120 120 120 120 117 117 117 117 117 189 189 189 189 189 189 227
 242 242 242 70 70 70 70 70 70 108 108 108 120 120 120 120 120 117 117 117
 117 117 189 189 189 189 189 189 189 242 242 242 242 70 70 70 70 70 108 108
 108 108 108 120 120 41 117 117 117 117 117 189 189 189 189 189 189 189 242 242
 242 242 70 70 70 70 5 5 5 108 108 108 41 41 41 41 117 117 117 117
 189 189 189 189 189 189 189 242 242 11 11 11 11 11 5 5 5 5 5 5
 5 90 40 40 40 117 117 117 117 189 189 189 189 189 189 189 242 11 11 11
 11 11 11 11 5 5 5 5 90 90 90 40 40 40 40 40 68 68 68 68
 189 189 189 189 189 11 11 11 11 11 11 11 11 78 78 78 90 90 90 90
 90 40 40 40 68 68 68 68 68 189 189 189 207 207 11 11 11 11 11 11
 11 145 24 24 78 90 90 90 90 90 168 168 168 68 68 68 68 68 54 138
 138 138 138 222 222 222 222 222 222 145 145 24 24 24 90 90 90 90 168 168
 168 168 168 68 68 68 54 54 54 54 138 138 222 222 222 222 222 222 145 145
 145 24 24 90 90 90 90 168 168 168 168 168 68 68 54 54 54 54 54 104
 104 222 222 222 222 222 222 145 145 145 145 24 90 90 90 90 168 168 168 168
 168 61 54 54 54 54 54 54 104 104 8 222 222 222 222 222 145 145 145 145
 87 224 224 224 224 168 168 168 168 61 61 244 244 54 54 54 54 104 104 8
 8 222 222 222 145 145 145 145 87 87 224 224 224 224 224 168 61 61 61 244
 244 244 244 54 30 30 30 30 8 8 8 8 222 145 145 145 87 87 87 224
 224 224 224 224 224 244 244 244 244 244 244 244 244 30 30 30 30 30 8 8
 8 199 199 199 199 87 87 87 224 224 224 224 224 224 17 244 244 244 244 244
 244 30 30 30 30 30 30 102 102 102 21 21 199 199 218 218 218 224 224 224
 224 132 132 17 17 244 244 244 244 244 30 30 30 30 30 102 102 102 102 21
 21 21 21 218 218 237 237 237 237 237 132 132 17 17 17 244 244 244 244 30
 30 30 30 30 102 102 102 102 21 21 21 21 21 237 237 237 237 237 237 132
 132 17 17 17 125 125 125 16 16 30 30 30 102 102 102 102 102 21 21 21
 21 18 237 237 237 237 237 237 132 132 17 17 125 125 125 125 16 16 16 30
 30 102 133 133 102 102 21 21 21 18 18 96 96 237 237 237 237 169 169 17
 17 125 125 125 125 16 16 16 127 30 133 133 133 133 126 126 18 18 18 18
 96 96 96 237 237 237 169 169 80 80 80 125 125 125 16 16 127 127 2 133
 133 126 126 126 126 126 18 18 18 18 96 96 96 238 238 169 169 80 80 80
 80 125 157 157 157 127 2 2 2 126 126 126 126 126 126 18 18 18 18 96
 96 96 96 238 3 3 80 80 80 80 157 157 157 157 2 2 2 2 2 126
 126 126 126 126 18 18 210 210 96 96 96 96 3 3 3 3 58 58 58 157
 157 157 157 2 2 2 2 126 126 126 126 126 126 126 221 221 221 221 221 3
 3 3 3 3 58 58 58 58 58 157 157 157 2 2 2 2 137 137 126 126
 126 126 221 221 221 221 221 221 3 3 3 3 3 58 58 58 58 58 58 31
 31 2 2 2 2 137 137 137 232 232 232 106 106 221 221 221 221 3 3 3
 3 3 58 58 58 58 58 58 31 31 189 2 2 137 137 137 232 232 232 70
 70 106 106 221 221 221 120 120 3 3 3 3 58 58 58 58 58 31 189 189
 189 227 137 137 137 232 232 70 70 70 70 106 221 221 120 120 120 120 120 3
 3 58 178 58 117 20 189 189 189 189 227 227 242 242 242 70 70 70 70 70
 70 70 120 120 120 120 120 120 120 117 117 117 117 117 117 189 189 189 189 189
 227 242 242 242 70 70 70 70 70 70 108 108 120 120 120 120 120 120 117 117
 117 117 117 201 189 189 189 189 189 189 242 242 242 70 70 70 70 70 70 108
 108 108 108 120 120 120 117 117 117 117 117 117 201 189 189 189 189 189 242 242
 242 242 242 70 70 70 70 5 5 5 5 108 120 120 40 40 117 117 117 117
 117 201 189 189 189 189 189 189 242 242 11 11 11 11 11 78 78 78 78 78
 78 78 78 40 40 40 40 117 117 201 201 201 189 189 189 189 189 242 11 11
 11 11 11 11 11 78 78 78 78 78 90 90 40 40 40 40 40 68 68 68
 201 189 189 189 189 189 11 11 11 11 11 11 11 11 78 78 78 78 90 90
 90 40 40 40 40 40 68 68 68 68 138 138 138 138 138 11 11 11 11 11
 11 11 24 24 24 78 90 90 90 90 90 168 168 40 40 68 68 68 68 138
 138 138 138 138 222 222 222 222 222 222 222 24 24 24 24 90 90 90 90 168
 168 168 168 168 68 68 68 54 138 138 138 138 138 222 222 222 222 222 222 145
 145 24 24 24 24 90 90 90 168 168 168 168 168 61 61 54 54 54 138 138
 138 138 222 222 222 222 222 222 145 145 145 24 24 24 90 90 90 168 168 168
 168 61 61 61 54 54 54 54 54 138 8 8 8 222 222 222 222 145 145 145
 24 24 224 224 224 224 168 168 168 61 61 61 61 244 54 54 54 54 8 8
 8 8 8 222 222 145 145 145 145 87 87 224 224 224 224 224 168 61 61 61
 61 61 244 244 54 30 30 30 8 8 8 8 8 222 145 145 145 145 87 87
 224 224 224 224 224 224 61 61 61 61 244 244 244 244 30 30 30 8 8 8
 8 98 98 145 199 199 87 87 87 224 224 224 224 224 224 61 61 244 244 244
 244 244 30 30 30 30 30 98 98 98 98 21 21 21 21 99 99 218 224 224
 224 224 224 132 17 86 86 244 244 244 244 30 30 30 30 30 102 102 102 21
 21 21 21 21 99 99 237 237 237 237 237 132 132 17 86 86 86 125 16 16
 16 30 30 30 102 102 102 102 21 21 21 21 21 99 237 237 237 237 237 237
 169 169 17 86 86 125 125 16 16 16 16 30 30 102 102 102 102 21 21 21
 21 21 21 96 96 237 237 237 169 169 169 169 17 125 125 125 16 16 16 16
 16 30 102 102 102 102 21 21 21 21 18 18 96 96 96 237 237 169 169 169
 169 17 125 125 125 16 16 16 16 16 16 133 133 133 133 126 21 18 18 18
 18 96 96 96 96 238 169 169 169 169 80 125 125 125 16 16 16 16 2 2
 2 2 126 126 126 126 18 18 18 18 18 96 96 96 238 238 169 169 169 80
 80 80 125 16 16 16 2 2 2 2 2 126 126 126 126 18 18 18 18 18
 96 96 96 238 238 238 193 193 80 80 80 157 157 157 157 2 2 2 2 2
 126 126 126 126 126 18 18 18 221 96 96 96 96 3 193 193 193 58 58 58
 58 157 157 2 2 2 2 2 2 126 126 126 126 126 221 221 221 221 221 221
 96 96 3 193 193 193 58 58 58 58 58 157 2 2 2 2 2 137 137 137
 232 126 126 221 221 221 221 221 221 221 3 3 193 193 193 58 58 58 58 58
 192 192 2 2 2 2 137 137 137 232 232 232 221 221 221 221 221 221 221 3
 3 193 193 193 58 58 58 58 58 192 192 192 2 2 137 137 137 232 232 232
 70 70 70 221 221 221 221 221 120 3 193 193 193 58 58 58 58 20 20 189
 189 189 137 137 137 137 232 232 70 70 70 70 70 221 221 120 120 120 120 120
 193 193 58 58 20 20 20 20 189 189 189 189 227 242 242 70 70 70 70 70
 70 70 70 120 120 120 120 120 120 120 117 117 117 117 20 20 201 189 189 189
 189 227 242 242 242 70 70 70 70 70 70 70 120 120 120 120 120 120 120 117
 117 117 117 117 201 201 189 189 189 189 242 242 242 242 70 70 70 70 70 70
 236 108 108 120 120 120 120 117 117 117 117 117 201 201 201 189 189 189 189 242
 242 242 242 242 70 70 70 70 70 5 5 78 78 120 40 40 40 40 117 117
 117 201 201 201 189 189 189 189 242 242 242 11 11 11 11 11 78 78 78 78
 78 78 78 78 40 40 40 40 40 117 201 201 201 201 189 189 189 189 242 11
 11 11 11 11 11 78 78 78 78 78 78 78 90 40 40 40 40 40 40 201
 201 138 138 138 138 138 138 11 11 11 11 11 11 11 78 78 78 78 78 78
 90 90 40 40 40 40 40 40 68 138 138 138 138 138 138 138 11 11 11 11
 11 11 11 24 24 24 78 78 90 90 90 40 40 40 40 40 40 68 138 138
 138 138 138 138 138 222 222 222 222 222 222 222 24 24 24 24 24 90 90 90
 168 168 168 168 168 61 68 138 138 138 138 138 138 138 222 222 222 222 222 222
 145 24 24 24 24 24 90 90 90 168 168 168 168 61 61 61 61 138 138 138
 138 138 138 222 222 222 222 222 222 145 145 24 24 24 24 24 226 226 168 168
 61 61 61 61 61 61 138 138 138 138 138 8 8 8 222 222 222 222 145 145
 24 24 24 24 226 226 226 226 168 61 61 61 61 61 61 134 134 138 138 8
 8 8 8 8 222 222 145 145 145 145 24 24 226 226 226 226 226 226 61 61
 61 61 61 61 134 134 134 8 8 8 8 8 8 8 98 145 145 145 145 87
 226 226 226 226 226 226 226 61 61 61 61 61 244 134 134 134 30 98 8 8
 8 8 98 98 98 99 99 99 99 226 226 226 226 226 226 226 61 61 61 244
 244 244 134 134 30 30 98 98 98 98 98 98 21 21 99 99 99 99 118 226
 226 226 226 226 226 86 86 86 86 86 134 134 134 30 30 98 98 98 98 98
 98 21 21 21 99 99 99 118 118 118 237 237 169 169 86 86 86 86 86 16
 16 16 30 30 98 98 98 98 98 21 21 21 21 99 99 99 118 118 118 237
 169 169 169 169 86 86 86 125 16 16 16 16 30 98 98 98 98 98 21 21
 21 21 21 99 99 96 96 237 169 169 169 169 169 86 86 86 125 16 16 16