# vtk DataFile Version 2.0
Data set from ImportExport Version 6.5.171.b0b162591
ASCII

DATASET RECTILINEAR_GRID
DIMENSIONS 30 30 30
X_COORDINATES 30 float
-1.250000 1.250000 3.750000 6.250000 8.750000 11.250000 13.750000 16.250000 18.750000 21.250000 23.750000 26.250000 28.750000 31.250000 33.750000 36.250000 38.750000 41.250000 43.750000 46.250000 48.750000 
51.250000 53.750000 56.250000 58.750000 61.250000 63.750000 66.250000 68.750000 71.250000 
Y_COORDINATES 30 float
-1.250000 1.250000 3.750000 6.250000 8.750000 11.250000 13.750000 16.250000 18.750000 21.250000 23.750000 26.250000 28.750000 31.250000 33.750000 36.250000 38.750000 41.250000 43.750000 46.250000 48.750000 
51.250000 53.750000 56.250000 58.750000 61.250000 63.750000 66.250000 68.750000 71.250000 
Z_COORDINATES 30 float
-1.250000 1.250000 3.750000 6.250000 8.750000 11.250000 13.750000 16.250000 18.750000 21.250000 23.750000 26.250000 28.750000 31.250000 33.750000 36.250000 38.750000 41.250000 43.750000 46.250000 48.750000 
51.250000 53.750000 56.250000 58.750000 61.250000 63.750000 66.250000 68.750000 71.250000 
CELL_DATA 24389
SCALARS FeatureIds int 1
LOOKUP_TABLE default
 24 24 24 24 136 136 136 136 136 136 136 136 193 193 193 193 22 22 22 5
 5 5 5 5 83 83 83 83 83 24 24 24 24 24 24 136 136 136 136 136
 227 193 193 193 22 22 22 22 22 5 5 5 5 83 83 83 83 53 24 24
 24 24 24 24 24 136 227 227 227 227 227 23 23 22 22 22 22 233 233 40
 40 40 40 83 53 53 53 53 24 24 24 24 24 24 227 227 227 227 227 227
 23 23 22 22 22 22 233 233 233 233 40 40 53 53 53 53 53 24 24 24
 24 24 24 227 227 227 227 227 23 23 23 22 22 22 233 233 233 233 233 233
 40 53 53 53 53 53 24 24 24 24 24 227 227 227 227 227 227 23 23 23
 23 70 74 74 233 233 233 233 233 40 53 53 53 53 213 213 24 24 24 24
 227 227 227 227 227 227 23 23 23 23 23 74 74 74 233 233 233 233 233 17
 17 53 53 213 213 213 213 248 215 215 215 227 227 227 23 23 23 23 23 23
 74 74 74 74 233 233 233 17 17 17 17 213 213 213 213 213 248 248 215 215
 215 115 115 23 23 23 23 23 23 74 74 74 74 74 233 17 17 17 17 17
 213 213 213 213 213 248 248 215 215 215 215 115 23 23 23 23 23 70 74 74
 74 74 74 17 17 17 17 17 17 213 213 213 213 106 248 248 215 215 215 215
 238 238 238 23 23 23 70 74 74 74 74 102 102 17 17 17 17 17 213 213
 213 213 106 248 248 215 215 215 238 238 238 238 23 81 81 81 81 102 102 102
 102 102 102 17 17 17 17 213 213 213 213 106 248 248 215 215 215 238 238 238
 238 238 81 81 81 81 102 102 102 102 102 102 17 17 9 9 9 9 9 41
 41 248 248 215 215 215 238 238 238 238 131 81 81 81 81 102 102 102 102 102
 102 102 9 9 9 9 9 9 41 41 41 41 215 215 95 95 95 95 95 81
 81 81 81 81 102 102 102 102 102 102 102 226 9 9 9 9 9 32 32 32
 228 217 95 95 95 95 95 95 95 81 81 81 91 91 102 102 102 102 226 226
 226 9 9 9 32 32 32 32 32 228 228 95 95 95 95 95 95 95 95 91
 91 91 91 91 102 102 102 226 226 226 226 9 9 32 32 32 32 32 228 228
 95 95 95 95 95 95 95 95 91 91 91 91 91 91 102 226 226 226 226 226
 9 184 32 32 32 32 112 112 112 112 95 95 95 95 95 100 100 91 91 91
 91 91 91 226 226 226 226 226 226 184 184 184 32 32 112 112 112 112 112 112
 95 95 95 100 100 100 100 91 91 91 91 91 175 175 226 226 226 184 184 184
 37 37 37 112 112 112 112 112 112 240 100 100 100 100 100 100 100 100 91 235
 235 175 175 175 175 184 184 184 184 206 37 37 112 112 112 112 112 112 240 100
 100 100 100 100 100 100 100 100 235 235 235 175 175 175 184 184 184 206 206 206
 113 113 112 112 112 112 112 112 100 100 100 100 100 100 100 100 235 235 235 235
 235 175 175 175 184 206 206 206 206 206 206 112 112 112 112 112 100 100 100 100
 100 100 100 212 212 235 235 235 235 235 175 175 175 206 206 206 206 206 206 206
 206 66 66 66 66 136 100 100 100 100 212 212 212 212 108 108 235 235 235 175
 222 200 206 206 206 113 206 206 206 206 66 66 136 136 136 136 100 212 212 212
 212 212 212 108 108 108 235 235 222 200 200 200 113 113 113 157 157 206 206 136
 136 136 136 136 136 136 212 212 212 212 212 212 108 108 108 235 235 200 200 200
 200 200 113 157 157 157 157 136 136 136 136 136 136 136 136 193 212 212 212 212
 212 108 108 108 235 200 200 200 200 200 200 200 157 157 157 157 136 136 136 136
 136 136 136 136 193 193 212 212 212 212 108 108 108 5 5 200 200 200 200 200
 200 7 7 24 24 136 136 136 136 136 136 136 136 193 193 193 193 22 22 22
 5 5 5 5 5 83 83 83 83 83 7 7 24 24 24 136 136 136 136 136
 136 136 193 193 193 22 22 22 22 22 5 5 5 5 83 83 83 83 83 24
 24 24 24 24 24 136 136 227 227 227 227 227 193 22 22 22 22 22 22 233
 5 5 5 83 83 83 83 53 53 24 24 24 24 24 227 227 227 227 227 227
 227 23 22 22 22 22 22 233 233 233 233 233 83 83 83 83 53 53 24 24
 24 24 24 227 227 227 227 227 227 23 23 23 22 22 22 22 233 233 233 233
 233 124 83 53 53 53 213 24 24 24 24 227 227 227 227 227 227 227 23 23
 23 23 70 70 74 233 233 233 233 233 124 124 53 53 53 213 213 213 24 24
 115 115 227 227 227 227 227 23 23 23 23 70 70 74 74 233 233 233 233 124
 124 17 53 213 213 213 213 213 248 215 215 115 115 115 115 23 23 23 23 23
 70 70 74 74 74 233 233 124 124 17 17 17 213 213 213 213 213 248 215 215
 215 215 115 115 23 23 23 23 23 70 70 74 74 74 74 233 124 17 17 17
 17 213 213 213 213 213 248 215 215 215 215 115 115 115 23 23 23 23 70 70
 74 74 74 74 74 17 17 17 17 17 213 213 213 213 213 248 215 215 215 215
 215 115 115 23 23 23 23 70 70 74 74 74 74 102 102 17 17 17 213 213
 213 213 213 213 248 215 215 215 215 215 238 238 238 23 81 81 81 81 81 102
 102 102 102 102 17 17 17 213 213 213 213 213 213 248 215 215 215 215 215 238
 238 238 81 81 81 81 81 81 102 102 102 102 102 102 17 9 9 9 9 41
 41 41 41 215 215 215 215 215 238 238 81 81 81 81 81 81 81 102 102 102
 102 102 102 9 9 9 9 9 41 41 41 41 41 217 217 95 95 95 95 81
 81 81 81 81 81 81 102 102 102 102 102 226 226 9 9 9 9 41 41 41
 41 228 217 217 95 95 95 95 95 81 81 81 81 81 102 102 102 102 102 226
 226 226 9 9 9 41 41 41 41 228 228 228 240 95 95 95 95 95 95 165
 165 91 91 91 91 102 102 102 226 226 226 226 9 9 32 41 41 32 228 228
 228 240 240 95 95 95 95 95 165 165 91 91 91 91 91 102 226 226 226 226
 226 226 184 184 32 32 228 228 228 228 240 240 95 95 95 95 100 100 165 91
 91 91 91 91 91 226 226 226 226 226 184 184 184 32 32 228 228 228 112 240
 240 240 95 95 100 100 100 100 91 91 91 91 91 226 226 226 226 226 184 184
 184 184 113 113 112 112 112 112 112 240 240 100 100 100 100 100 100 100 100 91
 235 235 235 175 175 175 184 184 184 184 206 113 113 112 112 112 112 112 240 240
 100 100 100 100 100 100 100 100 235 235 235 235 235 139 175 184 184 184 206 206
 113 113 113 112 112 112 112 112 8 100 100 100 100 100 100 100 100 235 235 235
 235 235 139 139 139 184 206 206 206 113 206 206 112 112 112 112 112 8 8 8
 100 100 100 212 212 212 235 235 235 235 235 139 139 139 206 206 206 113 113 206
 206 206 66 66 66 136 8 8 8 100 100 212 212 212 150 150 235 235 235 235
 139 222 222 206 206 113 113 113 206 206 206 206 136 136 136 136 136 8 193 150
 150 150 150 150 108 235 235 235 222 222 222 222 200 113 113 113 113 206 206 206
 136 136 136 136 136 136 193 193 193 212 212 212 212 212 108 235 235 222 222 222
 200 200 200 113 157 157 157 157 136 136 136 136 136 136 136 193 193 193 193 212
 212 212 212 108 235 5 5 222 200 83 200 200 200 157 157 157 136 136 136 136
 136 136 136 136 193 193 193 193 193 212 212 212 194 5 5 5 5 83 83 83
 83 83 7 7 7 7 136 136 136 136 136 136 136 136 193 193 193 193 22 22
 22 194 5 5 5 5 83 83 83 83 83 7 7 7 7 136 136 136 136 136
 136 136 127 193 193 193 22 22 22 22 22 5 5 5 5 83 83 83 83 83
 7 7 7 7 7 136 136 136 136 227 227 227 227 193 22 22 22 22 22 22
 124 5 5 5 83 83 83 83 83 7 7 7 24 24 24 227 227 227 227 227
 227 227 23 22 22 22 22 22 22 124 124 124 5 83 83 83 83 83 7 142
 142 24 142 142 227 227 227 227 227 227 23 23 23 22 22 22 22 124 124 124
 124 124 124 83 83 83 83 213 142 142 142 142 115 115 227 227 227 227 227 23
 23 23 70 70 70 70 124 124 124 124 124 124 83 83 53 53 213 213 213 142
 142 115 115 115 115 115 115 115 23 23 23 70 70 70 70 74 124 124 124 124
 124 124 124 53 213 213 213 213 213 213 115 115 115 115 115 115 115 23 23 23
 70 70 70 70 74 74 124 124 124 124 124 17 213 213 213 213 213 213 213 215
 215 215 115 115 115 115 23 23 23 70 70 70 70 74 74 74 124 124 124 17
 17 213 213 213 213 213 213 213 215 215 215 215 115 115 115 23 23 23 23 70
 70 70 74 74 74 124 124 17 17 17 213 213 213 213 213 213 213 215 215 215
 215 115 115 115 23 23 23 23 70 70 70 74 74 102 102 102 17 17 17 213
 213 213 213 213 213 213 215 215 215 215 115 115 115 81 81 81 81 81 81 81
 102 102 102 102 102 102 17 9 213 213 213 213 213 213 213 215 215 215 215 115
 238 238 81 81 81 81 81 81 81 102 102 102 102 102 102 9 9 9 9 41
 41 41 41 41 224 215 215 215 95 95 81 81 81 81 81 81 81 81 102 102
 102 102 102 102 9 9 9 9 41 41 41 41 41 41 217 217 217 95 95 95
 81 81 81 81 81 81 81 102 102 102 102 102 102 226 9 9 9 41 41 41
 41 41 217 217 217 217 95 95 95 95 81 81 81 81 81 81 102 102 102 102
 226 226 226 9 9 9 41 41 41 41 41 228 228 240 95 95 95 95 95 95
 165 165 165 91 91 91 102 102 102 226 226 226 226 9 9 41 41 41 228 228
 228 228 240 240 95 95 95 95 95 165 165 165 91 91 91 46 46 226 226 226
 226 226 226 184 184 41 41 228 228 228 228 240 240 240 95 95 95 100 165 165
 165 91 91 91 46 166 226 226 226 226 226 184 184 184 184 228 228 228 228 228
 240 240 240 95 95 100 100 100 165 165 91 91 91 166 166 166 226 226 226 184
 184 184 184 113 228 228 228 228 228 240 240 240 100 100 100 100 100 100 165 97
 97 97 235 235 139 139 226 184 184 184 184 206 206 113 112 112 112 112 112 240
 240 100 100 100 100 100 100 100 97 97 97 235 235 139 139 139 184 184 184 206
 206 206 206 206 112 112 112 112 240 8 8 8 100 100 100 100 100 97 97 235
 235 235 139 139 139 139 184 206 206 206 206 206 206 112 112 112 112 8 8 8
 8 8 100 100 212 212 212 235 235 235 235 139 139 139 139 139 206 206 113 206
 206 206 206 112 112 112 8 8 8 8 8 100 212 212 212 212 212 235 235 235
 139 139 222 222 222 206 113 113 113 206 206 206 206 136 136 136 136 8 8 193
 125 212 212 212 212 212 235 235 222 222 222 222 222 222 113 113 113 113 206 206
 206 136 136 136 136 136 136 193 193 193 193 212 212 212 212 108 235 222 222 222
 222 222 222 113 113 50 50 50 50 136 136 136 136 136 136 136 193 193 193 193
 193 212 212 212 194 5 5 222 222 222 83 83 83 83 50 50 50 50 136 136
 136 136 136 136 136 193 193 193 193 193 212 212 194 194 5 5 5 5 83 83
 83 83 83 7 7 7 7 7 136 136 136 136 136 136 127 125 125 125 125 22
 194 194 194 194 5 5 5 83 83 83 83 83 7 7 7 7 7 136 136 136
 136 136 127 127 127 127 125 22 22 22 22 194 194 5 5 5 83 83 83 83
 83 7 7 7 7 7 136 136 136 136 136 127 127 127 127 22 22 22 22 22
 22 194 5 5 5 83 83 83 83 83 7 7 7 7 142 142 144 144 144 144
 144 144 144 23 22 22 22 22 22 22 124 124 124 5 83 83 83 83 83 7
 142 142 142 142 142 144 144 144 144 144 144 144 23 22 22 22 22 22 124 124
 124 124 124 124 83 83 83 83 60 142 142 142 142 142 115 115 144 144 144 115
 23 23 23 70 70 70 70 124 124 124 124 124 124 83 83 83 60 60 60 142
 142 142 142 115 115 115 115 115 115 23 23 23 70 70 70 70 124 124 124 124
 124 124 124 83 60 60 60 60 60 142 142 115 115 115 115 115 115 115 23 23
 23 70 70 70 70 70 124 124 124 124 124 124 186 60 60 213 213 213 213 213
 215 115 115 115 115 115 115 23 23 23 70 70 70 70 70 74 124 124 124 124
 124 186 213 213 213 213 213 213 213 215 215 215 115 115 115 115 115 23 23 70
 70 70 70 70 74 124 124 124 101 101 101 213 213 213 213 213 213 213 215 215
 215 115 115 115 115 115 23 23 70 70 70 70 70 74 102 102 148 101 101 101
 213 213 213 213 213 213 213 215 215 215 215 115 115 115 115 81 81 81 81 81
 81 102 102 102 102 148 101 101 101 167 167 41 41 41 41 224 224 224 224 224
 224 115 115 81 81 81 81 81 81 81 102 102 102 102 102 101 101 167 167 167
 41 41 41 41 41 224 224 224 224 224 29 81 81 81 81 81 81 81 81 102
 102 102 102 102 102 167 167 167 167 41 41 41 41 41 224 217 217 217 217 95
 95 81 81 81 81 81 81 81 102 102 102 102 102 102 9 9 9 41 41 41
 41 41 41 217 217 217 217 59 95 95 95 81 81 81 81 81 81 46 102 102
 102 226 226 226 9 9 41 41 41 41 41 41 217 217 217 217 59 95 95 95
 165 165 165 165 165 46 46 46 46 102 226 226 226 226 9 41 41 41 41 228
 228 228 217 217 217 59 95 95 95 165 165 165 165 165 46 46 46 46 226 226
 226 226 226 226 184 184 41 41 228 228 228 228 240 240 240 95 95 95 165 165
 165 165 165 46 46 46 166 166 226 226 226 226 184 184 184 184 228 228 228 228
 228 240 240 240 95 100 100 100 165 165 165 97 97 97 166 166 166 166 226 226
 184 184 184 184 206 228 228 228 228 228 240 240 240 100 100 100 100 100 100 97
 97 97 97 166 166 166 139 139 184 184 184 184 206 206 206 228 228 228 228 240
 240 240 8 8 100 100 100 100 97 97 97 97 97 139 139 139 139 139 184 184
 206 206 206 206 206 112 112 18 18 240 8 8 8 8 100 100 100 97 97 97
 97 235 139 139 139 139 139 139 206 206 206 206 206 206 18 18 18 18 8 8
 8 8 8 100 100 192 192 97 97 97 235 139 139 139 139 139 139 206 206 206
 206 206 206 18 18 18 18 8 8 8 8 8 8 192 212 192 192 97 235 235
 139 139 139 139 139 139 206 206 113 206 206 206 18 18 18 136 136 8 8 8
 125 125 125 212 212 212 212 222 222 222 222 222 222 222 222 113 113 50 50 50
 50 18 136 136 136 136 136 8 193 193 125 193 212 212 212 212 222 222 222 222
 222 222 222 222 222 113 50 50 50 50 136 136 136 136 136 136 136 193 193 125
 193 193 212 212 194 194 194 222 222 222 222 83 83 83 50 50 50 50 50 136
 136 136 136 136 136 136 193 193 125 193 193 193 193 194 194 194 5 5 5 83
 83 83 83 83 7 7 7 7 7 136 136 163 163 163 127 127 127 125 193 193
 194 194 194 194 194 5 5 5 83 83 83 83 7 7 7 7 7 7 136 136
 163 163 163 127 127 127 127 193 22 22 194 194 194 194 5 5 5 83 83 83
 83 7 7 7 7 7 7 142 136 163 163 163 127 127 127 127 22 22 22 22
 194 194 178 5 5 5 83 83 83 83 7 7 7 7 142 142 142 142 144 144
 144 144 144 127 127 22 22 22 22 22 22 124 124 124 5 83 83 83 83 7
 7 142 142 142 142 142 142 144 144 144 144 144 247 247 22 22 22 22 22 124
 124 124 124 124 124 83 83 83 7 60 142 142 142 142 142 115 115 144 144 144
 115 247 23 23 70 70 70 70 124 124 124 124 124 124 83 83 52 60 60 60
 142 142 142 142 115 115 115 115 115 115 115 23 23 70 70 70 70 124 124 124
 124 124 124 124 52 60 60 60 60 60 142 142 142 115 115 115 115 115 115 115
 23 23 70 70 70 70 70 124 124 124 124 124 186 186 60 60 60 60 60 60
 142 115 115 115 115 115 115 115 115 23 23 70 70 70 70 70 124 124 124 124
 124 186 186 186 60 213 213 213 213 142 115 115 115 115 115 115 115 115 23 225
 70 70 70 70 70 124 124 124 148 101 101 101 101 60 213 213 213 213 213 215
 215 115 115 115 115 115 115 225 225 225 225 70 70 70 124 102 148 148 101 101
 101 101 101 213 213 213 213 224 224 224 224 224 115 115 115 115 181 181 181 225
 225 225 70 102 102 148 148 101 101 101 167 167 41 41 41 224 224 224 224 224
 224 224 29 29 81 81 181 181 181 81 81 102 102 102 102 148 101 101 167 167
 167 41 41 41 41 224 224 224 224 224 224 29 29 81 81 181 181 181 81 81
 102 102 102 102 102 101 101 167 167 167 41 41 41 41 224 224 224 224 224 224
 59 29 81 81 81 81 81 81 81 46 102 102 102 102 101 167 167 167 167 41
 41 41 41 41 217 217 217 217 59 59 59 81 81 81 81 81 81 46 46 46
 46 102 226 226 226 167 167 41 41 41 41 41 217 217 217 217 217 59 59 59
 95 165 165 165 165 165 46 46 46 46 46 226 226 226 226 9 41 41 41 41
 228 228 228 217 217 217 59 59 59 95 165 165 165 165 165 46 46 46 46 166
 173 226 226 226 226 41 41 41 228 228 228 228 217 217 217 59 59 59 95 165
 165 165 165 165 46 46 46 166 166 166 173 173 173 173 184 176 176 228 228 228
 228 240 240 240 59 59 59 100 165 165 165 97 97 97 46 166 166 166 166 173
 173 173 173 184 176 176 228 228 228 228 228 240 240 240 59 100 100 100 100 97
 97 97 97 97 166 166 166 166 173 173 173 173 184 206 206 206 228 228 228 228
 240 240 240 8 8 100 100 100 97 97 97 97 97 166 166 139 139 139 173 173
 173 206 206 206 206 18 18 18 18 18 18 8 8 8 8 100 192 192 97 97
 97 97 97 139 139 139 139 139 139 206 206 206 206 206 18 18 18 18 18 18
 8 8 8 8 192 192 192 192 97 97 97 97 139 139 139 139 139 139 206 206
 206 206 206 18 18 18 18 18 18 8 8 8 8 192 192 192 192 192 97 97
 222 222 222 139 139 139 139 206 206 50 50 50 18 18 18 18 18 18 8 8
 8 193 193 192 192 192 192 97 97 222 222 222 222 222 222 222 222 50 50 50
 50 50 18 18 18 136 136 136 193 193 193 193 193 193 212 212 178 222 222 222
 222 222 222 222 222 50 50 50 50 50 50 50 140 136 136 136 136 136 193 193
 193 193 193 193 178 178 194 194 222 222 222 222 83 83 50 50 50 50 50 50
 140 136 136 136 136 136 136 193 193 193 193 193 193 178 178 194 194 5 5 5
 83 83 83 83 50 7 7 7 7 7 140 163 163 163 163 127 127 127 127 193
 193 178 178 178 178 194 194 5 5 83 83 83 83 7 7 7 7 7 7 140
 163 163 163 163 127 127 127 127 127 22 22 194 194 75 194 194 5 5 83 83
 83 83 7 7 7 7 7 7 142 163 163 163 163 127 127 127 127 127 22 22
 194 194 178 178 178 5 5 83 83 83 83 7 7 7 7 142 142 142 142 163
 144 144 247 247 247 247 210 22 22 22 194 178 178 124 124 5 83 83 83 83
 7 203 142 142 142 142 142 142 144 144 144 247 247 247 247 210 210 22 22 22
 124 124 124 124 124 124 83 83 52 7 203 142 142 142 142 142 115 115 115 144
 247 247 247 247 210 210 210 70 70 124 124 124 124 124 124 52 52 52 52 60
 60 142 142 142 142 115 115 115 115 115 247 247 247 210 210 70 70 70 124 124
 124 124 124 124 52 52 52 60 60 60 60 60 142 142 115 115 115 115 115 115
 247 247 210 70 70 70 70 70 124 124 124 48 48 186 186 186 60 60 60 60
 60 142 142 115 115 115 115 115 115 115 23 225 70 70 70 70 70 124 124 124
 48 101 186 186 186 60 203 203 203 203 203 190 190 190 115 115 115 115 115 225
 225 225 225 70 70 70 124 148 148 148 101 101 101 101 60 203 203 203 203 224
 224 190 190 190 115 115 115 225 225 225 225 225 225 70 70 148 148 148 148 101
 101 101 101 101 167 167 203 224 224 224 224 224 224 224 29 29 29 225 225 225
 225 225 225 232 232 232 148 148 101 101 101 101 167 167 167 167 224 224 224 224
 224 224 224 29 29 29 181 181 181 181 225 225 232 232 232 148 148 101 101 167
 167 167 167 41 41 224 224 224 224 224 224 224 29 29 29 181 181 181 181 181
 181 232 232 232 232 148 101 101 167 167 167 41 41 41 41 224 224 224 224 224
 224 29 29 29 181 181 181 181 181 181 232 232 232 232 232 101 167 167 167 167
 41 41 41 41 217 217 217 217 217 59 59 59 29 181 181 181 181 181 46 46
 46 46 232 232 101 167 167 167 167 41 41 41 41 217 217 217 217 217 59 59
 59 59 165 165 165 165 46 46 46 46 46 46 173 173 173 173 167 41 176 176
 176 228 228 217 217 217 217 59 59 59 59 165 165 165 165 46 46 46 46 46
 166 173 173 173 173 173 41 176 176 176 228 228 228 217 217 217 59 59 59 59
 205 205 205 205 46 46 46 46 166 166 173 173 173 173 173 176 176 176 176 176
 228 228 217 217 217 59 59 59 205 205 205 205 97 97 97 46 166 166 166 173
 173 173 173 173 176 176 176 176 176 228 228 228 240 240 240 59 59 100 205 205
 97 97 97 97 97 166 166 166 173 173 173 173 173 176 176 176 176 18 18 18
 18 240 240 240 8 8 90 192 192 97 97 97 97 97 166 166 166 173 173 173
 173 173 173 206 206 206 18 18 18 18 18 18 8 8 8 90 192 192 192 192
 97 97 97 166 139 139 139 139 173 173 173 173 206 206 206 18 18 18 18 18
 18 8 8 8 90 192 192 192 192 97 97 97 97 139 139 139 139 139 139 26
 206 206 206 206 18 18 18 18 18 18 8 8 8 90 192 192 192 192 192 97
 97 97 222 139 139 139 139 26 26 26 50 50 50 18 18 18 18 18 18 149
 149 8 193 192 192 192 192 192 97 97 222 222 222 156 156 156 26 26 50 50
 50 50 208 140 140 140 140 163 149 149 149 193 193 193 193 192 192 178 178 222
 222 222 222 222 222 222 50 50 50 50 50 208 140 140 140 140 163 163 149 149
 193 193 193 193 193 178 178 178 194 194 222 222 222 83 83 50 50 50 50 50
 208 140 140 140 163 163 163 149 149 149 193 193 193 178 178 178 178 194 194 5
 5 83 83 83 83 50 7 7 7 208 140 140 140 163 163 163 2 2 2 2
 2 2 194 194 178 194 194 194 5 5 83 83 83 83 7 7 7 7 7 7
 140 163 163 163 163 2 2 2 2 2 2 194 194 194 194 194 194 5 5 83
 83 83 83 7 7 7 7 7 7 142 163 163 163 163 2 2 2 2 2 210
 22 194 194 194 194 194 5 5 83 83 83 83 7 7 7 7 142 142 142 142
 163 163 247 247 247 2 247 210 210 210 194 194 194 178 124 124 5 83 83 83
 83 7 203 142 142 142 142 142 142 247 247 247 247 247 247 247 210 210 210 210
 22 124 124 124 124 124 27 27 52 52 186 203 203 142 142 142 142 142 115 247
 247 247 247 247 247 210 210 210 210 70 124 124 124 124 124 48 52 52 52 186
 203 203 203 142 142 142 142 115 115 247 247 247 247 247 210 210 210 210 70 124
 124 124 48 48 48 52 52 52 186 203 203 203 203 142 142 190 190 115 115 247
 247 247 247 210 210 210 70 70 70 124 124 48 48 48 186 186 186 186 203 203
 203 203 203 190 190 190 190 115 115 115 115 225 225 225 225 70 70 70 124 48
 48 48 48 186 186 186 52 203 203 203 203 203 190 190 190 190 115 115 115 225
 225 225 225 225 225 70 70 148 148 148 148 101 101 101 52 52 203 203 203 203
 224 190 190 190 190 115 115 29 225 225 225 225 225 225 225 232 148 148 148 148
 101 101 101 12 12 12 203 203 224 224 224 224 224 224 224 29 29 29 225 225
 225 225 225 225 232 232 232 148 148 101 101 101 12 12 12 12 224 224 224 224
 224 224 224 224 29 29 29 225 225 225 225 225 225 232 232 232 232 148 101 101
 101 12 12 167 41 224 224 224 224 224 224 224 224 29 29 29 29 181 181 181
 225 225 232 232 232 232 148 101 101 167 167 167 41 41 41 224 224 224 224 224
 224 224 29 29 29 29 181 181 181 181 181 232 232 232 232 232 101 101 167 167
 167 41 41 41 41 224 224 224 224 224 224 59 29 29 29 181 181 181 181 46
 46 232 232 232 232 101 101 167 167 167 41 41 176 176 217 217 217 217 217 59
 59 59 29 29 165 165 165 46 46 46 46 46 232 173 173 173 173 173 176 176
 176 176 176 228 217 217 217 217 59 59 59 59 205 205 205 205 46 46 46 46
 46 166 173 173 173 173 173 176 176 176 176 176 228 217 217 217 217 59 59 59
 59 205 205 205 205 205 46 46 46 166 166 173 173 173 173 173 176 176 176 176
 176 228 228 217 217 217 59 59 59 205 205 205 205 205 97 97 119 166 166 166
 173 173 173 173 173 176 176 176 176 176 228 228 228 240 217 59 59 59 205 205
 205 205 97 97 97 97 166 166 166 173 173 173 173 173 176 176 176 176 176 18
 18 18 18 18 59 90 90 90 90 192 192 97 97 97 97 166 166 166 173 173
 173 173 173 176 176 176 176 18 18 18 18 18 18 18 90 90 90 90 192 192
 97 97 97 97 97 166 166 173 173 173 173 173 176 152 152 18 18 18 18 18
 18 18 8 8 90 90 90 192 192 192 97 97 97 97 139 139 156 156 173 173
 26 26 152 50 18 18 18 18 18 18 18 18 90 90 90 90 192 192 192 192
 97 97 97 156 156 156 156 156 26 26 26 50 50 208 208 140 140 140 140 140
 149 149 149 90 90 192 192 192 192 97 97 156 156 156 156 156 156 26 26 26
 50 50 208 208 140 140 140 140 140 149 149 149 149 149 193 192 192 192 178 194
 156 156 156 156 156 156 26 26 26 50 50 208 208 140 140 140 140 163 149 149
 149 149 149 193 193 192 178 178 194 194 194 156 156 156 156 26 26 50 50 50
 208 208 140 140 140 163 163 163 149 149 149 149 193 193 178 178 178 194 194 194
 5 5 83 83 83 50 50 7 7 7 208 140 140 140 163 163 163 2 2 2
 2 2 170 170 194 194 194 194 47 243 243 243 243 83 7 7 7 7 7 7
 140 140 163 163 163 163 2 2 2 2 2 170 170 170 194 194 194 47 243 243
 243 243 83 7 7 7 7 7 7 7 140 163 163 163 163 2 2 2 2 2
 210 170 170 194 194 194 47 243 243 243 243 83 7 7 7 7 7 142 142 142
 163 163 163 247 247 247 2 247 210 210 210 210 194 194 194 47 243 243 243 27
 27 7 7 203 203 142 142 142 142 142 134 134 247 247 247 247 247 210 210 210
 210 210 194 124 124 124 27 27 27 27 52 186 203 203 203 142 142 142 142 134
 134 247 247 128 247 247 210 210 210 210 210 124 124 124 124 27 27 27 52 52
 186 203 203 203 203 142 142 190 134 134 247 247 247 247 247 210 210 210 210 210
 124 124 48 48 48 48 52 52 52 186 203 122 203 203 203 190 190 190 190 247
 247 247 247 247 210 210 210 210 210 70 48 48 48 48 48 186 186 52 186 203
 203 203 203 203 190 190 190 190 190 247 247 247 247 225 225 225 225 225 161 48
 48 48 48 48 186 186 52 52 203 203 203 203 203 190 190 190 190 190 115 247
 225 225 225 225 225 225 225 161 148 148 148 148 101 101 101 52 52 12 203 203
 203 224 224 190 190 190 190 190 225 225 225 225 225 225 225 225 232 148 148 148
 148 101 101 101 12 12 12 203 203 224 224 224 224 224 224 224 29 29 29 225
 225 225 225 225 225 232 232 232 148 148 101 101 101 12 12 12 12 203 224 224
 224 224 224 224 224 29 29 29 225 225 225 225 225 225 232 232 232 148 148 101
 101 101 12 12 12 12 224 224 224 224 224 224 224 224 29 29 29 29 225 225
 225 225 225 232 232 232 232 148 101 101 101 12 12 41 41 224 224 224 224 224
 224 224 224 29 29 29 29 181 181 225 225 232 232 232 232 232 232 101 101 101
 167 167 41 41 41 224 224 224 224 224 224 224 29 29 29 29 181 181 181 181
 46 232 232 232 232 232 101 101 101 167 167 176 176 176 176 217 217 217 217 217
 59 191 191 191 191 205 205 205 46 46 46 46 232 173 173 173 173 173 173 176
 176 176 176 176 176 217 217 217 217 59 191 191 191 205 205 205 205 205 46 46
 46 46 173 173 173 173 173 173 176 176 176 176 176 209 209 209 217 217 217 191
 191 191 205 205 205 205 205 119 119 119 119 173 173 173 173 173 173 176 176 176
 176 176 209 209 209 209 209 209 191 191 191 205 205 205 205 205 119 119 119 119
 173 173 173 173 173 173 176 176 176 176 176 209 209 209 209 209 209 209 191 205
 205 205 205 205 97 119 119 119 119 173 173 173 173 173 173 176 176 176 176 176
 18 18 18 209 209 209 90 90 90 90 205 205 97 97 97 119 119 119 173 173
 173 173 173 173 176 152 152 152 18 18 18 18 18 18 90 90 90 90 90 90
 192 97 97 97 97 119 119 173 173 173 173 173 173 176 152 152 152 18 18 18
 18 18 18 90 90 90 90 90 90 192 192 97 97 97 97 156 156 156 156 68
 26 26 26 152 152 152 18 18 18 18 18 96 96 90 90 90 90 90 90 192
 192 97 97 156 156 156 156 156 156 26 26 26 26 208 208 208 140 140 140 140
 140 149 149 149 149 90 90 90 192 192 97 156 156 156 156 156 156 26 26 26
 26 50 208 208 208 140 140 140 140 140 149 149 149 149 149 90 90 192 192 178
 156 156 156 156 156 156 26 26 26 26 50 50 208 208 140 140 140 140 163 149
 149 149 149 149 149 149 192 178 178 194 194 156 156 156 156 26 26 26 26 50
 208 208 208 140 140 140 163 163 163 149 149 149 149 149 149 170 178 178 194 194
 47 243 243 243 243 26 26 50 7 7 208 208 140 140 140 163 163 163 2 2
 2 2 2 170 170 170 170 47 47 47 243 243 243 243 243 7 7 7 7 7
 7 140 140 163 163 163 163 2 2 2 2 2 170 170 170 170 47 47 47 243
 243 243 243 243 7 7 7 7 7 7 7 140 163 163 163 2 2 2 2 2
 2 170 170 170 170 47 47 47 243 243 243 243 243 7 7 7 7 203 142 142
 142 134 134 134 134 247 247 2 247 210 210 210 170 170 47 47 47 243 243 243
 27 27 27 7 203 203 203 203 142 142 134 134 134 134 247 247 247 247 210 210
 210 210 210 47 47 47 243 27 27 27 27 27 186 203 203 203 203 142 142 134
 134 134 134 247 247 247 247 210 210 210 210 210 196 196 124 27 27 27 27 27
 52 186 203 203 203 203 203 203 134 134 134 134 247 247 247 247 210 210 210 210
 210 196 196 48 48 48 27 27 52 186 186 203 203 203 203 203 203 190 190 134
 134 247 247 247 247 210 210 210 210 196 196 196 48 48 48 48 186 186 186 186
 203 203 203 203 203 190 190 190 190 190 247 247 247 225 225 225 225 225 196 161
 196 48 48 48 48 186 186 52 52 203 203 203 203 203 190 190 190 190 190 190
 247 225 225 225 225 225 225 161 161 161 148 148 148 101 101 101 52 52 203 203
 203 203 224 224 190 190 190 190 29 29 225 225 225 225 225 225 161 161 161 148
 148 148 101 101 101 12 12 12 203 203 224 224 224 224 224 224 224 29 29 29
 225 225 225 225 225 161 161 232 232 148 148 101 101 101 12 12 12 12 203 224
 224 224 224 224 224 224 29 29 29 225 225 225 225 225 161 232 232 232 148 148
 101 101 101 12 12 12 12 224 224 224 224 224 224 224 224 29 29 29 29 225
 225 225 225 161 232 232 232 232 148 101 101 101 101 12 41 41 224 224 224 224
 224 224 224 224 29 29 29 29 225 225 225 225 232 232 232 232 232 232 101 101
 101 101 167 176 176 176 224 224 224 224 224 224 224 29 29 29 29 110 225 225
 225 232 232 232 232 232 232 101 101 101 101 167 176 176 176 10 217 217 224 224
 224 191 191 191 191 191 205 205 205 119 46 46 46 232 232 173 173 173 173 173
 176 176 176 176 176 209 209 209 209 209 191 191 191 191 191 205 205 205 119 119
 119 119 119 173 173 173 173 173 173 176 176 176 176 176 209 209 209 209 209 209
 191 191 191 191 205 205 205 119 119 119 119 119 183 173 173 173 173 173 176 176
 176 176 176 209 209 209 209 209 209 191 191 191 205 205 205 205 119 119 119 119
 119 183 173 173 173 173 173 176 176 176 176 176 209 209 209 209 209 209 209 146
 146 205 205 205 205 31 119 119 119 119 183 173 173 173 173 173 176 176 176 176
 176 209 209 209 209 209 209 146 146 146 146 146 205 31 31 31 119 119 119 183
 173 173 173 173 173 176 152 152 152 152 18 18 18 209 209 146 146 146 146 146
 146 146 31 31 31 31 119 119 183 68 68 68 68 173 152 152 152 152 152 18
 18 18 18 96 146 146 146 146 146 146 146 31 31 31 31 119 119 68 68 68
 68 68 26 152 152 152 152 152 18 18 18 96 96 96 96 146 146 146 146 146
 146 31 31 31 156 156 156 156 156 68 26 26 26 26 152 208 208 140 140 140
 140 96 96 96 149 146 146 146 146 146 31 31 156 156 156 156 156 156 26 26
 26 26 26 208 208 208 140 140 140 140 96 96 149 149 149 149 146 146 146 170
 170 156 156 156 156 156 156 26 26 26 26 26 208 208 208 140 140 140 140 1
 149 149 149 149 149 146 146 170 170 170 194 47 47 156 156 156 26 26 26 26
 50 208 208 208 140 140 140 140 163 149 149 149 149 149 149 170 170 170 170 194
 47 47 243 243 243 243 26 26 26 7 7 208 208 140 140 140 78 78 78 2
 2 2 89 89 89 170 170 170 47 47 47 243 243 243 243 243 243 7 7 7
 7 7 140 140 78 78 78 78 78 2 2 89 89 89 170 170 170 47 47 47
 243 243 243 243 243 243 7 7 7 7 7 7 140 78 78 78 78 78 2 2
 89 89 89 170 170 170 47 47 47 243 243 243 243 243 243 7 203 7 203 142
 142 140 78 78 94 94 94 247 2 247 89 89 170 170 170 47 47 47 243 243
 243 27 27 27 27 203 203 203 203 142 134 134 134 134 134 134 247 247 247 210
 210 210 210 170 47 47 47 243 27 27 27 27 27 27 203 203 203 203 203 134
 134 134 134 134 134 247 247 247 210 210 210 210 196 196 196 239 239 27 27 27
 27 27 186 203 203 203 203 203 133 133 134 134 134 134 247 247 247 210 210 210
 210 196 196 196 239 239 27 27 27 27 186 186 203 203 203 203 203 133 133 133
 134 134 134 247 247 247 210 210 210 196 196 196 196 239 239 48 27 27 186 186
 186 203 203 203 203 203 190 190 133 133 134 134 247 247 225 225 225 225 196 196
 196 196 239 118 118 118 186 186 52 52 203 203 203 203 64 190 190 190 190 190
 190 247 225 225 225 225 225 161 161 161 161 118 118 118 118 101 129 129 129 203
 203 203 64 64 64 64 190 190 224 145 145 145 225 225 225 225 161 161 161 161