# vtk DataFile Version 2.0
Data set from ImportExport Version 6.5.171.b0b162591
ASCII

DATASET RECTILINEAR_GRID
DIMENSIONS 30 30 30
X_COORDINATES 30 float
-1.250000 1.250000 3.750000 6.250000 8.750000 11.250000 13.750000 16.250000 18.750000 21.250000 23.750000 26.250000 28.750000 31.250000 33.750000 36.250000 38.750000 41.250000 43.750000 46.250000 48.750000 
51.250000 53.750000 56.250000 58.750000 61.250000 63.750000 66.250000 68.750000 71.250000 
Y_COORDINATES 30 float
-1.250000 1.250000 3.750000 6.250000 8.750000 11.250000 13.750000 16.250000 18.750000 21.250000 23.750000 26.250000 28.750000 31.250000 33.750000 36.250000 38.750000 41.250000 43.750000 46.250000 48.750000 
51.250000 53.750000 56.250000 58.750000 61.250000 63.750000 66.250000 68.750000 71.250000 
Z_COORDINATES 30 float
-1.250000 1.250000 3.750000 6.250000 8.750000 11.250000 13.750000 16.250000 18.750000 21.250000 23.750000 26.250000 28.750000 31.250000 33.750000 36.250000 38.750000 41.250000 43.750000 46.250000 48.750000 
51.250000 53.750000 56.250000 58.750000 61.250000 63.750000 66.250000 68.750000 71.250000 
CELL_DATA 24389
SCALARS FeatureIds int 1
LOOKUP_TABLE default
 163 163 163 52 52 52 52 180 180 180 180 107 107 107 107 107 28 28 28 20
 20 20 20 20 20 154 154 154 154 163 163 163 163 52 222 222 180 180 180 180
 107 107 107 107 107 28 28 28 28 20 20 20 20 154 154 154 154 154 163 163
 163 163 222 222 222 180 180 180 180 137 107 107 107 107 28 28 106 106 106 106
 106 106 154 154 154 154 163 163 163 163 222 222 222 222 222 180 180 180 137 137
 137 137 137 106 106 106 106 106 106 106 106 154 154 154 154 163 163 163 163 222
 222 222 222 222 180 180 180 137 137 137 137 137 106 106 106 106 106 106 106 106
 108 154 154 154 163 163 163 222 222 222 222 222 222 193 180 180 137 137 159 159
 159 106 106 106 106 106 106 106 106 108 194 194 18 163 163 113 113 222 222 222
 222 222 193 180 66 159 159 159 159 159 159 106 106 106 106 106 106 108 194 194
 194 18 18 96 96 225 225 222 222 222 222 193 66 66 159 159 159 159 159 191
 191 191 191 106 106 232 232 194 194 194 18 18 96 96 225 225 225 225 225 225
 66 66 66 66 159 159 159 159 191 191 191 191 191 232 232 232 232 194 194 18
 18 96 96 225 225 225 225 225 225 225 66 66 66 66 159 159 159 191 191 191
 191 191 232 232 232 232 232 38 18 96 96 225 225 225 225 225 225 225 41 41
 66 66 66 66 43 43 191 191 191 191 191 232 232 232 232 232 38 96 96 225
 225 225 225 225 225 225 41 41 41 41 41 76 43 43 43 43 191 191 191 191
 170 170 170 170 170 170 37 96 225 225 225 225 225 225 225 41 41 41 41 41
 76 43 43 43 43 43 191 191 218 218 170 170 170 170 37 37 37 225 225 225
 225 225 225 225 41 41 41 41 76 76 43 43 43 43 43 43 218 218 218 218
 218 218 37 37 37 37 225 225 225 225 225 225 225 41 41 41 41 41 76 97
 43 43 97 97 218 218 218 218 218 218 218 218 37 37 17 17 17 225 225 225
 82 82 82 41 41 41 41 76 97 97 97 97 97 218 218 218 218 218 218 218
 17 17 17 17 17 17 17 225 82 82 82 82 82 82 41 41 97 97 97 97
 97 97 218 218 218 218 218 218 218 17 17 17 17 17 17 17 17 82 82 82
 82 82 82 82 64 64 64 64 64 64 64 64 218 218 218 218 218 17 17 17
 17 17 17 17 119 119 82 82 82 82 82 82 82 64 64 64 64 64 64 64
 64 218 218 218 218 218 223 223 17 17 17 17 119 119 119 119 82 82 82 82
 49 49 49 64 64 64 64 64 64 64 64 218 218 223 223 223 223 223 17 17
 17 119 119 119 119 119 82 82 82 49 49 49 49 129 64 64 64 64 64 64
 64 218 223 223 223 223 223 17 17 119 119 119 119 119 119 119 49 49 49 49
 49 49 129 129 64 64 64 64 64 64 132 132 200 223 223 203 203 203 119 119
 119 119 119 119 119 119 49 49 49 49 49 129 129 64 64 64 64 64 70 132
 132 132 200 203 203 203 203 119 119 119 119 119 186 186 186 49 49 49 49 49
 129 129 64 64 70 70 70 70 70 158 158 158 203 203 203 203 119 119 119 119
 173 173 173 173 231 231 49 49 49 129 129 70 70 70 70 70 70 70 158 158
 158 158 203 203 203 52 52 52 173 173 173 173 186 186 231 204 204 204 204 129
 70 70 70 70 70 20 20 158 158 158 158 203 203 203 52 52 52 173 173 173
 173 186 231 231 204 204 204 204 70 70 70 70 70 70 20 20 20 158 158 158
 203 203 203 52 52 52 52 173 173 173 186 231 231 204 204 204 204 70 70 70
 70 70 20 20 20 20 20 20 154 154 154 154 154 52 52 52 52 173 173 186
 231 231 204 204 204 204 70 70 70 70 70 20 20 20 20 20 20 154 154 154
 154 163 163 163 52 52 52 52 180 180 180 137 137 137 107 107 28 28 28 28
 20 20 20 20 20 20 154 154 154 154 163 163 163 52 52 222 222 180 180 180
 137 137 137 137 137 28 28 28 28 28 20 20 20 20 154 154 154 154 154 163
 163 163 163 222 222 222 180 180 180 180 137 137 137 137 28 28 28 28 28 106
 106 108 108 154 154 154 154 163 163 163 163 222 222 222 222 222 180 180 180 137
 137 137 137 137 28 28 106 106 106 106 108 108 108 154 154 154 163 163 163 163
 222 222 222 222 222 180 180 180 137 137 137 137 137 106 106 106 106 106 106 108
 108 108 108 154 154 163 163 163 113 222 222 222 222 222 222 180 137 137 137 137
 137 137 106 106 106 106 106 106 108 108 108 194 194 18 18 18 113 113 113 222
 222 222 222 222 180 137 137 137 159 159 159 166 166 166 106 106 106 108 108 194
 194 194 18 18 18 113 113 113 113 222 222 222 222 66 66 66 66 101 101 101
 166 166 166 191 166 166 232 232 194 194 194 18 18 225 225 225 225 225 225 225
 222 66 66 66 66 66 101 101 101 166 191 191 191 191 166 232 232 232 194 194
 18 18 225 225 225 225 225 225 225 225 66 66 66 66 66 101 101 101 166 191
 191 191 191 232 232 232 232 232 232 18 18 225 225 225 225 225 225 225 225 41
 41 66 66 66 101 101 101 166 191 191 191 191 232 232 232 232 232 232 18 96
 225 225 225 225 225 225 225 41 41 41 41 66 66 43 43 43 43 166 166 191
 166 232 232 232 232 232 232 37 96 225 225 225 225 225 225 225 41 41 41 41
 41 41 43 43 43 43 43 166 166 166 218 218 232 232 232 37 37 37 225 225
 225 225 225 225 225 41 41 41 41 41 41 43 43 43 43 43 218 218 218 218
 218 218 218 37 37 37 37 17 225 225 225 225 225 225 41 41 41 41 41 41
 43 43 43 43 43 218 218 218 218 218 218 218 17 17 17 17 17 17 225 225
 225 82 82 82 41 41 41 41 41 43 43 43 43 43 218 218 218 218 218 218
 218 17 17 17 17 17 17 17 225 82 82 82 82 82 82 41 41 64 64 64
 64 64 64 218 218 218 218 218 218 218 17 17 17 17 17 17 17 225 82 82
 82 82 82 82 82 64 64 64 64 64 64 64 64 218 218 218 218 218 17 17
 17 17 17 17 17 17 119 82 82 82 82 82 82 82 64 64 64 64 64 64
 64 64 218 218 218 218 223 223 223 17 17 17 17 17 119 119 119 82 82 82
 82 49 49 49 49 64 64 64 64 64 64 64 218 218 223 223 223 223 223 17
 17 17 119 119 119 119 119 82 82 49 49 49 49 49 129 64 64 64 64 64
 64 218 218 223 223 223 223 223 17 17 119 119 119 119 119 119 119 49 49 49
 49 49 49 129 129 64 64 64 64 64 64 132 132 200 200 200 200 203 203 119
 119 119 119 119 119 119 49 49 49 49 49 49 129 129 64 64 64 64 64 132
 132 132 132 200 200 203 203 203 119 119 119 119 119 173 173 173 49 49 49 49
 49 129 129 64 64 64 70 70 70 132 132 132 132 200 203 203 203 119 119 119
 173 173 173 173 173 231 231 204 204 204 204 129 70 70 70 70 70 70 132 132
 132 132 200 203 203 203 52 52 52 173 173 173 173 173 231 231 204 204 204 204
 204 70 70 70 70 70 20 20 20 20 158 158 203 203 203 52 52 52 52 173
 173 173 173 231 231 204 204 204 204 204 70 70 70 70 20 20 20 20 20 20
 158 203 203 203 52 52 52 52 52 173 173 173 231 231 204 204 204 204 204 70
 70 70 70 20 20 20 20 20 20 20 154 154 154 154 52 52 52 52 52 52
 52 231 231 204 204 204 204 28 28 28 28 28 20 20 20 20 20 20 154 154
 154 154 163 163 52 52 52 52 52 52 174 174 174 174 174 174 174 28 28 28
 28 28 20 20 20 20 20 154 154 154 154 163 163 163 163 52 52 222 137 137
 137 137 137 137 137 137 28 28 28 28 28 20 20 20 20 154 154 154 154 154
 163 163 163 163 222 222 222 180 180 180 137 137 137 137 137 28 28 28 28 28
 106 108 108 108 108 154 154 154 163 163 163 163 163 222 222 222 222 180 180 137
 137 137 137 137 28 28 28 28 106 106 108 108 108 108 108 154 154 163 163 163
 163 222 222 222 222 222 180 180 137 137 137 137 137 137 28 28 106 106 106 108
 108 108 108 108 108 154 163 163 113 113 113 222 222 222 222 222 137 137 137 137
 137 137 137 166 166 106 106 106 108 108 108 108 108 108 18 163 113 113 113 113
 113 222 222 222 222 137 137 137 137 137 137 137 166 166 166 166 166 108 108 108
 108 194 194 18 18 18 113 113 113 113 113 222 222 222 66 66 66 66 101 101
 101 166 166 166 166 166 166 108 108 194 194 194 18 18 113 113 113 113 113 225
 225 222 66 66 66 66 101 101 101 101 166 166 166 166 166 166 232 232 232 194
 194 18 18 225 225 225 225 225 225 225 225 66 66 66 66 66 101 101 101 166
 166 166 166 166 166 232 232 232 232 232 18 18 225 225 225 225 225 225 225 225
 41 66 66 66 66 101 101 101 166 166 166 166 166 166 232 232 232 232 232 18
 96 225 225 225 225 225 225 225 41 41 41 41 66 66 66 101 43 166 166 166
 166 166 166 232 232 232 232 232 37 96 225 225 225 225 225 225 225 41 41 41
 41 41 66 43 43 43 43 43 166 166 166 166 218 232 232 232 37 37 37 225
 225 225 225 225 225 225 41 41 41 41 41 41 43 43 43 43 43 166 218 218
 218 218 218 218 17 17 17 17 225 225 225 225 225 225 225 41 41 41 41 41
 41 43 43 43 43 43 218 218 218 218 218 218 218 17 17 17 17 17 17 225
 225 225 82 82 82 41 41 41 41 134 43 43 43 43 43 218 218 218 218 218
 218 218 17 17 17 17 17 17 17 225 82 82 82 82 82 82 41 41 64 64
 64 64 64 64 218 218 218 218 218 218 218 17 17 17 17 17 17 17 17 82
 82 82 82 82 82 224 64 64 64 64 64 64 64 64 218 218 218 218 218 17
 17 17 17 17 17 17 119 119 82 82 82 82 82 224 224 224 64 64 64 64
 64 64 64 218 218 218 218 218 223 223 17 17 17 17 119 119 119 119 82 82
 82 224 224 49 49 64 64 64 64 64 64 64 64 218 218 218 223 223 223 223
 17 17 17 119 119 119 119 119 82 224 224 49 49 49 49 129 64 64 64 64
 64 64 64 218 200 200 200 200 200 200 17 119 119 119 119 119 119 119 224 49
 49 49 49 49 129 129 64 64 64 64 64 132 132 132 200 200 200 200 200 17
 119 119 119 119 119 119 119 224 49 49 49 49 49 129 129 64 64 64 64 64
 132 132 132 132 200 200 200 203 203 138 138 138 138 138 173 173 231 231 231 204
 204 49 129 129 64 64 64 26 26 132 132 132 132 132 200 203 203 203 138 138
 138 138 173 173 173 231 231 231 204 204 204 204 129 64 26 26 26 26 26 132
 132 132 132 132 203 203 203 52 52 52 52 173 173 173 231 231 231 204 204 204
 204 204 204 70 70 26 26 20 20 20 132 132 132 203 203 203 52 52 52 52
 52 173 173 231 231 231 204 204 204 204 204 204 70 70 70 20 20 20 20 20
 132 132 203 203 203 52 52 52 52 52 52 173 231 231 231 204 204 204 204 204
 28 28 28 70 20 20 20 20 20 20 20 154 154 154 154 52 52 52 52 52
 52 231 231 174 174 174 174 174 174 28 28 28 28 20 20 20 20 20 20 154
 154 154 154 163 163 52 52 52 52 52 80 80 174 174 174 174 174 174 28 28
 28 28 28 219 219 219 20 154 154 154 154 154 163 163 163 52 52 52 52 80
 80 137 174 174 174 137 137 28 28 28 28 28 219 219 219 219 154 154 154 154
 154 163 163 163 163 222 222 222 180 137 137 137 137 137 137 137 28 28 28 28
 28 219 219 108 108 108 154 154 154 154 163 163 163 163 222 222 222 222 137 137
 137 137 137 137 137 137 28 28 28 28 108 108 108 108 108 108 154 154 163 163
 163 163 222 222 222 222 222 137 137 137 137 137 137 137 137 28 28 28 106 108
 108 108 108 108 108 108 154 163 163 113 113 113 113 222 222 222 137 137 137 137
 137 137 137 137 166 166 166 108 108 108 108 108 108 108 108 108 163 113 113 113
 113 113 222 222 222 222 137 137 137 137 137 137 137 166 166 166 166 166 108 108
 108 108 108 108 18 18 113 113 113 113 113 113 222 222 111 66 66 66 101 101
 101 101 166 166 166 166 166 166 108 108 108 108 108 18 18 113 113 113 113 113
 113 113 111 111 111 66 66 101 101 101 101 166 166 166 166 166 166 166 232 232
 232 194 18 18 225 225 225 225 225 225 225 111 111 111 66 66 101 101 101 101
 166 166 166 166 166 166 232 232 232 232 232 18 18 225 225 225 225 225 225 225
 111 111 111 66 66 66 101 101 101 166 166 166 166 166 166 232 232 232 232 232
 18 31 225 225 225 225 225 225 225 41 41 41 66 66 66 101 101 101 166 166
 166 166 166 166 232 232 232 232 31 31 31 225 225 225 225 225 225 225 41 41
 41 41 134 134 134 134 43 166 166 166 166 166 166 232 232 232 31 31 31 31
 225 225 225 225 225 225 123 41 41 41 41 134 134 134 134 43 43 43 166 218
 218 218 218 218 218 31 17 31 17 17 225 225 225 225 123 123 123 41 41 41
 134 134 134 134 43 43 43 218 218 218 218 218 218 218 17 17 17 17 17 17
 225 225 123 123 123 123 41 41 41 134 134 134 134 168 168 168 218 218 218 218
 218 218 218 17 17 17 17 17 17 17 123 123 82 82 82 82 82 224 34 134
 168 168 168 168 168 218 218 218 218 218 218 218 17 17 17 17 17 17 17 127
 82 82 82 82 82 224 224 224 64 168 168 168 64 64 64 218 218 218 218 218
 17 17 17 17 17 17 17 161 119 127 82 82 82 224 224 224 224 64 64 64
 64 64 64 64 64 218 218 218 200 223 17 17 17 17 17 161 119 119 119 127
 82 224 224 224 224 224 64 64 64 64 64 64 64 64 48 48 200 200 200 200
 200 17 17 161 119 119 119 119 119 224 224 224 224 224 49 49 64 64 64 64
 64 64 64 48 48 200 200 200 200 200 200 17 119 119 119 119 119 119 224 224
 165 165 49 49 49 129 64 64 64 64 64 64 48 132 132 200 200 200 200 200
 200 138 138 138 138 138 138 138 165 165 165 49 49 49 129 129 64 64 64 26
 26 132 132 132 132 200 200 200 200 203 138 138 138 138 138 138 138 231 231 231
 204 204 204 204 129 64 64 26 26 26 26 132 132 132 132 200 200 203 203 138
 138 138 138 138 173 173 231 231 231 204 204 204 204 204 64 26 26 26 26 26
 132 132 132 132 132 203 203 203 52 52 52 52 52 173 173 231 231 231 204 204
 204 204 204 204 26 26 26 26 26 26 132 132 132 132 203 203 203 52 52 52
 52 52 52 173 231 231 231 204 204 204 204 204 204 26 26 26 26 20 20 20
 20 132 132 154 203 154 52 52 52 52 52 52 52 231 231 231 204 204 204 204
 204 28 28 26 26 20 20 20 20 20 20 154 154 154 154 154 52 52 52 52
 52 52 231 231 174 174 174 174 174 174 28 28 28 28 20 20 20 20 20 20
 154 154 154 154 163 163 52 52 52 52 80 80 80 80 174 174 174 174 174 28
 28 28 28 219 219 219 219 219 219 154 154 154 154 163 163 163 52 52 52 80
 80 80 80 174 174 174 174 174 28 28 28 28 219 219 219 219 219 219 154 154
 154 154 163 163 163 163 222 222 80 80 80 178 174 174 137 137 137 28 28 28
 28 28 219 219 219 108 108 108 154 154 154 163 163 163 163 222 222 222 178 178
 178 137 137 137 137 137 137 28 28 28 28 219 219 108 108 108 108 108 154 163
 163 163 113 113 222 222 222 178 178 178 137 137 137 137 137 137 28 28 28 28
 108 108 108 108 108 108 108 154 163 163 113 113 113 113 222 222 222 178 137 137
 137 137 137 137 137 166 166 166 108 108 108 108 108 108 108 108 108 108 113 113
 113 113 113 113 222 222 178 137 137 137 137 137 137 137 166 166 166 166 166 108
 108 108 108 108 108 108 18 113 113 113 113 113 113 113 111 111 111 66 66 101
 101 101 166 166 166 166 166 166 166 108 108 108 108 108 18 18 113 113 113 113
 113 113 113 111 111 111 66 66 101 101 101 101 166 166 166 166 166 166 166 108
 108 108 108 18 18 114 113 113 113 225 225 111 111 111 111 111 66 66 101 101
 101 166 166 166 166 166 166 166 232 232 232 232 18 114 225 225 225 225 225 225
 225 111 111 111 111 66 66 101 101 101 166 166 166 166 166 166 166 232 232 232
 31 31 31 225 225 225 225 225 225 225 111 111 111 111 66 66 66 101 101 166
 166 166 166 166 166 166 232 232 31 31 31 31 225 225 225 225 225 225 123 123
 123 41 41 134 134 134 134 134 166 166 166 166 166 166 166 232 31 31 31 31
 31 31 225 225 225 225 123 123 123 123 123 134 134 134 134 134 134 43 166 166
 166 218 218 218 218 31 31 31 31 31 31 225 225 225 123 123 123 123 123 123
 134 134 134 134 134 134 43 168 90 218 218 218 218 218 218 31 31 31 31 17
 17 225 123 123 123 123 123 123 123 123 134 134 134 134 168 168 168 168 218 218
 218 218 218 218 17 17 17 17 17 17 161 123 123 123 123 123 123 224 224 34
 134 168 168 168 168 168 168 218 218 218 218 218 73 17 17 17 17 161 161 161
 127 123 123 123 224 224 224 224 224 224 168 168 168 168 168 168 218 218 218 218
 218 73 17 17 17 17 161 161 161 127 127 127 127 224 224 224 224 224 224 168
 168 168 168 168 64 64 48 48 48 200 200 17 17 17 17 161 161 161 127 127
 127 127 224 224 224 224 224 224 168 168 168 64 64 64 48 48 48 48 200 200
 200 200 17 17 161 161 161 127 127 127 127 224 224 224 224 224 224 64 64 64
 64 64 64 48 48 48 48 200 200 200 200 200 200 161 161 138 138 127 127 127
 224 165 165 165 165 49 129 64 64 64 64 9 48 48 48 48 200 200 200 200
 200 200 161 138 138 138 138 127 165 165 165 165 165 204 204 129 129 64 64 64
 26 26 48 48 132 132 200 200 200 200 200 138 138 138 138 138 138 165 165 165
 165 204 204 204 204 204 64 64 26 26 26 26 132 132 132 132 200 200 200 203
 138 138 138 138 138 173 164 231 231 231 204 204 204 204 204 204 26 26 26 26
 26 26 132 132 132 132 200 203 203 52 52 52 52 52 52 173 231 231 231 204
 204 204 204 204 26 26 26 26 26 26 26 132 132 132 132 200 203 203 52 52
 52 52 52 52 52 231 231 231 204 204 204 204 204 204 26 26 26 26 26 26
 20 20 132 132 154 203 154 52 52 52 52 52 52 52 231 231 231 204 204 204
 204 204 28 26 26 26 26 26 20 20 20 20 154 154 154 154 52 52 52 52
 52 52 52 80 80 174 174 174 174 174 174 28 28 28 28 26 219 219 219 20
 20 154 154 154 154 211 163 52 52 52 52 80 80 80 80 174 174 174 174 174
 28 28 28 28 219 219 219 219 219 219 211 211 211 211 211 163 163 52 52 80
 80 80 80 80 174 120 174 174 174 28 28 28 28 219 219 219 219 219 219 211
 211 211 211 211 163 163 163 187 80 80 80 80 178 174 174 174 174 174 28 28
 28 28 219 219 219 219 219 108 211 211 211 211 211 163 187 187 187 222 178 178
 178 178 178 174 137 137 137 28 28 28 28 219 219 219 61 61 61 61 211 211
 211 163 187 187 187 187 222 222 178 178 178 178 137 137 137 137 137 28 28 28
 219 219 61 61 61 61 61 61 211 211 62 62 113 113 113 222 222 178 178 178
 137 137 137 137 137 137 77 77 166 166 108 61 61 61 61 61 108 108 108 62
 62 113 113 113 113 222 178 178 137 137 137 137 137 88 77 77 77 166 166 166
 61 61 61 61 61 61 61 62 62 62 113 113 113 113 113 111 111 111 66 66
 66 101 88 88 77 77 166 166 166 166 61 61 61 61 61 62 62 114 114 114
 113 113 113 111 111 111 111 111 66 66 101 88 88 88 166 166 166 166 166 166
 61 61 61 61 114 114 114 114 114 113 225 225 111 111 111 111 111 66 66 101
 88 88 88 166 166 166 166 166 166 61 61 232 31 114 114 114 114 114 225 225
 225 111 111 111 111 111 66 66 101 88 88 88 166 166 166 166 166 166 166 232
 31 31 31 31 114 225 225 225 225 225 123 111 111 111 111 66 66 134 134 88
 88 166 166 166 166 166 166 166 31 31 31 31 31 31 225 225 225 225 123 123
 123 123 123 134 134 134 134 134 134 134 166 166 166 166 166 166 31 31 31 31
 31 31 31 31 225 225 123 123 123 123 123 123 134 134 134 134 134 134 134 90
 90 90 90 90 218 31 31 31 31 31 31 31 31 225 123 123 123 123 123 123
 123 134 134 134 134 134 134 134 90 90 90 90 90 218 218 31 31 31 31 31
 31 31 123 123 123 123 123 123 123 123 34 134 134 134 134 168 168 168 90 90
 90 90 218 73 73 31 31 31 31 161 161 161 123 123 123 123 123 123 34 34
 34 134 134 168 168 168 168 90 90 90 90 218 73 73 73 73 73 17 161 161
 161 127 127 127 123 123 224 224 34 34 34 168 168 168 168 168 168 90 90 48
 48 73 73 73 73 73 161 161 161 161 127 127 127 127 224 224 224 224 224 34
 168 168 168 168 168 168 48 48 48 48 48 73 73 73 73 161 161 161 161 127
 127 127 127 224 224 224 224 224 224 168 168 168 168 168 9 48 48 48 48 48
 167 167 167 167 161 161 161 161 127 127 127 127 224 224 224 224 224 224 168 168
 168 168 9 9 48 48 48 48 48 167 167 167 167 161 161 161 161 127 127 127
 127 165 165 165 165 165 224 129 64 64 64 9 9 48 48 48 48 167 167 167
 167 167 161 161 161 138 138 127 127 127 165 165 165 165 165 165 129 129 64 64
 9 9 48 48 48 48 167 167 167 167 167 167 161 138 138 138 138 127 165 165
 165 165 165 204 204 204 204 91 26 26 26 26 26 26 132 132 132 167 167 167
 167 138 138 138 138 138 164 164 164 164 231 204 204 204 204 204 26 26 26 26
 26 26 26 132 132 132 132 167 167 167 52 52 52 52 52 164 164 164 164 231
 204 204 204 204 204 26 26 26 26 26 26 26 26 132 132 132 167 167 167 52
 52 52 52 52 52 164 164 164 231 204 204 204 204 204 26 26 26 26 26 26
 26 26 20 132 132 211 211 211 52 52 52 52 52 52 164 164 164 174 174 174
 174 174 174 174 26 26 26 26 26 26 219 219 171 171 211 211 211 52 52 52
 52 52 52 52 80 80 174 174 174 174 174 174 174 28 28 28 26 219 219 219
 219 171 171 211 211 211 211 130 130 130 130 130 80 80 80 80 174 174 174 174
 174 28 28 28 28 219 219 219 219 219 171 171 211 211 211 211 211 130 130 130
 130 80 80 80 80 174 174 174 174 174 28 28 28 28 219 219 219 219 219 171
 171 211 211 211 211 211 187 187 187 187 80 80 80 178 174 174 174 174 174 28
 28 28 28 219 219 219 219 219 171 171 211 211 211 211 187 187 187 187 187 178
 178 178 178 178 174 174 174 174 174 28 28 28 81 81 81 81 61 61 171 211
 211 211 187 187 187 187 187 187 187 178 178 178 178 174 174 174 174 174 209 77
 209 81 81 81 61 61 61 61 211 211 211 62 62 187 187 187 187 187 178 178
 178 178 137 137 137 137 77 77 77 77 81 81 61 61 61 61 61 61 211 62
 62 62 62 187 187 187 187 178 178 178 178 137 137 88 88 77 77 77 77 166
 166 61 61 61 61 61 61 62 62 62 62 62 62 187 187 111 111 111 111 111
 111 88 88 88 88 77 77 77 166 166 166 61 61 61 61 61 62 62 114 114
 114 114 113 113 111 111 111 111 111 111 66 88 88 88 88 77 77 166 166 166
 166 61 61 61 114 114 114 114 114 114 114 114 114 111 111 111 111 111 111 66
 88 88 88 88 88 166 166 166 166 166 61 61 31 114 114 114 114 114 114 114
 114 225 111 111 111 111 111 66 66 88 88 88 88 88 166 166 166 166 166 166
 31 31 31 31 114 114 114 114 114 225 123 123 111 111 111 111 66 134 134 88
 88 88 88 166 166 166 166 166 31 31 31 31 31 31 31 114 114 225 123 123
 123 123 123 123 134 134 134 134 134 134 88 88 166 166 166 166 166 31 31 31
 31 31 31 31 31 31 123 123 123 123 123 123 123 134 134 134 134 134 134 134
 90 90 90 90 90 90 31 31 31 31 31 31 31 31 31 123 123 123 123 123
 123 123 134 134 134 134 134 134 134 90 90 90 90 90 90 90 31 31 31 31
 31 31 31 31 123 123 123 123 123 123 123 34 34 198 198 198 168 168 90 90
 90 90 90 90 73 73 73 31 31 31 161 161 161 127 123 123 123 123 123 34
 34 34 34 198 168 168 168 168 90 90 90 90 90 73 73 73 73 73 31 161
 161 161 127 127 127 127 123 224 224 34 34 34 34 168 168 168 168 90 90 90
 90 73 73 73 73 73 73 161 161 161 161 127 127 127 127 127 224 224 224 34
 34 34 168 168 168 168 168 48 48 48 48 73 73 73 73 73 161 161 161 161
 127 127 127 127 127 224 224 224 224 34 34 168 168 168 9 9 48 48 48 48
 48 73 73 73 161 161 161 161 161 127 127 127 127 127 224 224 224 224 224 34
 168 168 9 9 9 48 48 48 48 48 167 167 167 167 161 161 161 161 127 127
 127 127 127 165 165 165 165 224 34 91 9 9 9 9 48 48 48 48 48 167
 167 167 167 161 161 161 161 127 127 127 127 165 165 165 165 165 165 91 91 91
 9 9 9 48 48 48 48 48 167 167 167 167 161 161 161 138 138 127 127 164
 165 165 165 165 204 204 91 91 91 91 26 26 26 26 48 48 48 167 167 167
 167 161 130 130 130 130 164 164 164 164 164 164 204 204 204 91 91 91 26 26
 26 26 26 26 132 132 132 167 167 167 161 130 130 130 130 130 164 164 164 164
 164 204 204 204 204 91 91 26 26 26 26 26 26 26 177 177 177 167 167 211
 130 130 130 130 130 130 164 164 164 164 204 204 204 204 91 91 26 26 26 26
 26 26 26 177 177 177 211 211 211 130 130 130 130 130 130 130 164 164 174 174
 174 174 174 174 26 26 26 26 26 26 26 219 177 177 171 211 211 211 130 130
 130 130 130 130 130 80 80 174 174 174 174 174 174 174 124 26 26 26 219 219
 219 219 171 171 211 211 211 211 130 130 130 130 130 130 80 80 174 174 174 174
 174 174 124 124 124 124 124 219 219 219 171 171 171 211 211 211 211 130 130 130
 130 130 130 80 80 174 174 174 174 174 174 124 124 124 124 124 219 219 219 171
 171 171 211 211 211 211 211 187 187 187 187 80 80 80 178 174 174 174 174 174
 124 124 124 124 124 81 81 81 171 171 171 211 211 211 211 187 187 187 187 187
 187 178 178 178 178 174 174 174 174 209 209 209 209 209 81 81 81 171 171 171
 171 211 211 187 187 187 187 187 187 187 178 178 178 178 174 174 174 174 209 209
 209 209 209 81 81 81 61 61 171 171 211 211 227 187 187 187 187 187 187 178
 178 178 178 137 174 174 77 77 77 77 77 77 81 61 61 61 61 61 61 62
 62 62 62 62 187 187 187 187 187 178 213 178 137 88 88 77 77 77 77 77
 77 77 61 61 61 61 61 184 62 62 62 62 62 62 187 187 187 111 111 111
 111 111 88 88 88 88 77 77 77 77 166 166 61 61 61 184 184 62 62 114
 114 114 114 187 187 111 111 111 111 111 111 88 88 88 88 88 77 77 77 166
 166 166 61 184 184 184 114 114 114 114 114 114 114 114 111 111 111 111 111 111
 66 88 88 88 88 88 77 77 166 166 166 61 184 184 184 114 114 114 114 114
 114 114 114 111 111 111 111 111 111 66 88 88 88 88 88 166 166 166 166 166
 166 31 31 31 31 114 114 114 114 114 114 123 139 139 111 111 111 42 134 88
 88 88 88 88 166 166 166 166 3 31 31 31 31 31 31 31 31 114 114 123
 123 139 139 139 139 134 134 134 134 134 88 88 88 90 90 90 90 3 31 31
 31 31 31 31 31 31 31 123 123 123 123 123 123 123 134 134 134 134 134 134
 134 90 90 90 90 90 90 31 31 31 31 31 31 31 31 31 123 123 123 123
 123 123 123 34 134 69 198 198 198 198 90 90 90 90 90 90 31 31 31 31
 31 31 31 31 31 123 123 123 123 123 123 34 34 34 69 1 69 69 168 90
 90 90 90 90 90 73 73 73 31 31 31 161 161 161 127 127 123 123 123 123
 34 34 34 34 198 69 168 168 90 90 90 90 90 90 73 73 73 73 73 31
 161 161 161 127 127 127 127 127 224 34 34 34 34 34 168 168 168 168 90 90
 90 90 73 73 73 73 73 73 161 161 161 161 127 127 127 127 127 115 115 34
 34 34 34 168 168 168 168 90 48 48 48 48 73 73 73 73 73 161 161 161
 161 127 127 127 127 127 115 115 115 34 34 34 168 168 168 9 9 48 48 48
 48 48 73 73 73 161 161 161 161 161 127 127 127 127 127 115 115 115 224 34
 34 168 168 9 9 9 9 48 48 48 48 48 167 167 161 161 161 161 161 127
 127 127 127 127 165 165 165 165 34 91 91 9 9 9 9 9 48 48 48 48
 48 167 167 167 161 161 161 161 127 127 127 127 127 165 165 165 165 91 91 91
 91 9 9 9 48 48 48 48 48 48 167 167 167 161 161 161 161 130 127 164
 164 164 165 165 165 165 91 91 91 91 91 91 26 48 48 48 48 48 48 167
 167 167 161 130 130 130 130 130 164 164 164 164 164 164 204 91 91 91 91 91
 26 26 26 26 26 177 177 177 177 177 167 161 130 130 130 130 130 164 164 164
 164 164 164 204 91 91 91 91 91 26 26 26 26 26 177 177 177 177 177 177
 211 130 130 130 130 130 130 164 164 164 164 164 174 174 91 91 91 26 26 26
 26 26 26 177 177 177 177 171 171 211 130 130 130 130 130 130 130 164 164 164
 174 174 174 174 174 124 124 26 26 26 26 26 177 177 177 171 171 171 211 130
 130 130 130 130 130 130 164 80 174 174 174 174 174 174 124 124 124 124 124 219
 219 219 171 171 171 171 211 211 211 130 130 130 130 130 130 130 80 174 174 174
 174 174 174 124 124 124 124 124 219 219 171 171 171 171 171 211 211 211 130 130
 130 130 130 130 130 80 174 174 174 174 174 174 124 124 124 124 124 124 219 171
 171 171 171 171 211 211 211 187 187 187 187 187 187 80 80 174 174 174 174 174
 174 124 124 124 124 124 81 81 171 171 171 171 171 211 211 187 187 187 187 187
 187 187 178 178 174 174 174 174 174 209 209 209 209 209 209 81 81 81 171 171
 171 171 171 211 187 187 187 187 187 187 187 187 213 213 213 174 174 174 209 209
 209 209 209 209 81 81 81 171 171 171 171 171 211 227 187 187 187 187 187 187
 213 213 213 213 213 174 174 209 209 209 209 209 209 81 61 61 61 184 184 184
 227 227 227 227 187 187 187 187 187 187 213 213 213 213 213 88 88 77 77 77
 77 77 77 61 61 61 184 184 184 184 227 227 227 227 187 187 187 187 187 213
 213 213 213 88 88 88 88 77 77 77 77 77 143 143 61 184 184 184 184 227
 227 227 227 227 187 187 187 111 111 111 111 111 88 88 88 88 88 77 77 77
 77 143 143 184 184 184 184 184 227 114 114 114 114 187 187 111 111 111 111 111
 111 88 88 88 88 88 88 77 77 3 3 143 184 184 184 184 114 114 114 114
 114 114 114 139 139 139 111 111 42 42 42 88 88 88 88 88 88 3 3 3
 3 3 31 31 31 31 114 114 114 114 114 114 139 139 139 139 139 42 42 42
 88 88 88 88 88 88 3 3 3 3 3 31 31 31 31 31 31 114 114 114
 139 139 139 139 139 139 42 42 42 134 134 88 88 88 90 90 3 3 3 3
 31 31 31 31 31 31 31 31 139 139 139 139 139 139 139 139 42 134 198 198
 198 198 90 90 90 90 135 135 135 31 31 31 31 31 31 31 31 123 123 139
 139 139 139 139 34 34 69 198 198 198 198 90 90 90 90 90 135 135 31 31
 31 31 31 31 31 221 221 123 123 123 123 123 34 34 34 198 198 198 69 168
 90 90 90 90 90 90 73 73 73 31 31 31 161 161 161 127 127 127 123 123
 123 34 34 34 34 198 69 69 168 90 90 90 90 90 90 73 73 73 73 73
 31 161 161 161 127 127 127 127 127 115 34 34 34 34 34 34 168 168 90 90
 90 90 90 73 73 73 73 73 73 161 161 161 161 127 127 127 127 127 115 115
 34 34 34 34 34 168 168 168 90 48 48 48 48 73 73 73 73 73 161 161
 161 161 127 127 127 127 127 115 115 115 34 34 34 168 168 9 9 9 48 48
 48 48 48 73 73 73 161 161 161 161 161 127 127 127 127 127 115 115 115 224
 34 34 168 9 9 9 9 9 48 48 48 48 48 167 167 161 161 161 161 161
 127 127 127 127 127 115 115 115 53 34 91 91 9 9 9 9 9 48 48 48
 48 48 167 167 161 161 161 161 161 127 127 127 127 127 165 165 165 53 91 91
 91 91 91 9 9 48 48 48 48 48 48 167 167 167 161 130 130 130 130 127
 127 164 164 164 53 53 53 91 91 91 91 91 91 9 48 48 48 48 177 177
 177 105 105 161 130 130 130 130 130 164 164 164 164 164 53 53 91 91 91 91
 91 91 26 26 26 177 177 177 177 177 177 177 161 130 130 130 130 130 130 164
 164 164 164 164 53 91 91 91 91 91 91 26 26 26 177 177 177 177 177 177
 177 177 130 130 130 130 130 130 164 164 164 164 164 174 91 91 91 91 91 26
 26 26 199 177 177 177 177 177 177 171 171 130 130 130 130 130 130 130 164 164
 164 174 174 174 174 124 124 124 124 26 26 199 199 177 177 177 171 171 171 171
 130 130 130 130 130 130 130 130 80 174 174 174 174 174 124 124 124 124 124 124
 199 199 199 171 171 171 171 171 211 211 130 130 130 130 130 130 130 80 174 174
 39 39 39 39 124 124 124 124 124 199 199 199 171 171 171 171 171 171 211 130
 130 130 130 130 130 126 126 126 126 39 39 39 39 124 124 124 124 124 124 199
 171 171 171 171 171 171 171 211 187 187 187 187 187 187 126 126 126 126 39 39
 39 39 124 124 124 124 124 124 81 171 171 171 171 171 171 171 187 187 187 187
 187 187 187 126 126 126 126 39 39 39 27 209 209 209 209 209 81 81 171 171
 171 171 171 171 171 187 187 187 187 187 187 187 213 213 213 213 213 39 27 27
 209 209 209 209 209 81 81 171 171 171 171 171 171 171 227 187 187 187 187 187
 187 213 213 213 213 213 213 27 27 209 209 209 209 209 81 143 143 184 184 184
 184 184 227 227 227 187 187 187 187 187 213 213 213 213 213 213 213 88 209 77
 77 77 77 143 143 143 143 184 184 184 184 227 227 227 227 187 187 187 187 213
 213 213 213 213 213 88 88 88 77 77 77 77 77 143 143 143 184 184 184 184
 227 227 227 227 227 187 187 187 213 213 213 213 42 42 88 88 88 88 77 77