# vtk DataFile Version 2.0
Data set from ImportExport Version 6.5.171.b0b162591
ASCII

DATASET RECTILINEAR_GRID
DIMENSIONS 30 30 30
X_COORDINATES 30 float
-1.250000 1.250000 3.750000 6.250000 8.750000 11.250000 13.750000 16.250000 18.750000 21.250000 23.750000 26.250000 28.750000 31.250000 33.750000 36.250000 38.750000 41.250000 43.750000 46.250000 48.750000 
51.250000 53.750000 56.250000 58.750000 61.250000 63.750000 66.250000 68.750000 71.250000 
Y_COORDINATES 30 float
-1.250000 1.250000 3.750000 6.250000 8.750000 11.250000 13.750000 16.250000 18.750000 21.250000 23.750000 26.250000 28.750000 31.250000 33.750000 36.250000 38.750000 41.250000 43.750000 46.250000 48.750000 
51.250000 53.750000 56.250000 58.750000 61.250000 63.750000 66.250000 68.750000 71.250000 
Z_COORDINATES 30 float
-1.250000 1.250000 3.750000 6.250000 8.750000 11.250000 13.750000 16.250000 18.750000 21.250000 23.750000 26.250000 28.750000 31.250000 33.750000 36.250000 38.750000 41.250000 43.750000 46.250000 48.750000 
51.250000 53.750000 56.250000 58.750000 61.250000 63.750000 66.250000 68.750000 71.250000 
CELL_DATA 24389
SCALARS FeatureIds int 1
LOOKUP_TABLE default
 215 215 69 20 20 20 20 20 55 47 47 47 47 47 99 99 99 99 99 99
 68 68 68 68 68 215 215 215 215 69 69 69 69 20 20 212 212 163 47 47
 47 47 82 82 99 99 99 99 68 68 68 68 68 68 48 48 48 48 69 69
 69 69 69 20 212 144 144 47 47 47 82 82 82 82 99 99 99 68 68 68
 68 209 209 48 48 48 48 69 69 69 59 59 144 144 144 144 144 93 93 82
 82 82 41 41 41 207 207 68 68 209 209 209 209 48 59 59 59 59 59 59
 59 144 144 144 144 144 93 93 93 82 82 82 41 207 207 207 207 68 209 209
 209 209 59 59 59 59 59 59 59 59 144 144 144 144 144 93 93 93 82 82
 82 41 207 207 207 207 207 209 209 209 209 59 59 59 59 59 59 59 104 104
 144 144 144 241 241 241 241 241 82 82 207 207 207 207 207 207 64 209 64 64
 59 59 59 59 59 59 104 104 104 144 144 144 241 241 241 241 241 241 241 172
 172 172 172 172 64 64 64 64 64 64 59 59 152 152 152 152 104 104 104 144
 144 241 241 241 241 241 241 241 172 172 172 172 172 64 64 64 64 64 64 152
 152 152 152 152 152 138 104 104 144 241 241 5 5 5 241 241 241 52 52 52
 52 52 64 64 64 64 213 213 213 152 152 152 152 138 138 138 138 193 5 5
 5 5 5 5 5 52 52 52 52 52 52 64 64 64 213 213 213 213 152 38
 38 38 138 138 138 193 193 193 5 5 5 5 5 52 52 52 52 52 52 52
 52 64 213 213 213 213 213 38 38 38 38 138 138 193 193 193 193 193 94 94
 94 94 175 175 175 52 52 52 52 52 64 213 213 213 213 213 38 38 38 38
 138 193 193 193 193 193 193 94 94 94 94 175 175 175 52 52 52 52 33 33
 14 14 213 213 213 38 38 38 38 138 193 193 193 193 193 193 94 94 94 94
 140 140 140 140 140 52 33 33 33 14 14 14 14 14 38 38 38 217 217 90
 90 193 193 193 193 94 94 94 94 140 140 140 140 140 140 33 33 33 33 14
 14 14 14 38 217 217 217 217 90 90 90 90 90 17 17 17 17 17 140 140
 140 140 140 140 33 33 33 33 14 14 14 14 14 217 217 217 217 217 90 90
 90 90 17 17 17 17 17 198 198 198 198 140 140 33 33 33 14 14 14 14
 14 14 217 217 217 217 217 29 90 90 17 17 17 17 17 17 198 198 198 198
 198 198 33 33 33 14 14 14 54 54 54 217 217 217 217 217 217 29 29 17
 17 17 17 17 17 187 187 187 187 187 187 188 188 188 188 188 54 54 54 54
 217 217 217 217 217 217 29 29 216 17 17 17 17 17 187 187 187 187 187 187
 188 188 188 188 188 54 54 54 54 101 101 217 217 217 217 29 216 216 216 17
 17 184 184 184 187 187 187 75 75 75 188 188 188 188 54 54 54 54 101 101
 101 101 217 217 216 216 216 216 216 184 184 184 184 184 187 75 75 75 188 188
 188 188 54 54 54 54 54 101 101 101 101 101 228 216 216 216 216 216 184 184
 184 184 184 187 75 75 24 24 188 188 188 54 54 54 54 101 101 101 101 101
 101 20 216 216 216 216 15 15 184 184 184 184 99 99 99 99 99 188 188 54
 54 54 54 54 101 101 101 101 20 20 20 20 216 216 15 15 15 15 184 184
 99 99 99 99 99 99 99 188 54 54 215 215 215 215 215 101 101 20 20 20
 20 20 216 15 15 15 15 214 99 99 99 99 99 99 99 99 99 54 215 215
 215 215 215 215 215 20 20 20 20 20 20 55 55 214 214 214 214 99 99 99
 99 99 99 99 99 68 68 215 215 215 215 215 215 215 20 20 20 20 20 20
 55 55 214 214 214 214 99 99 99 99 99 99 68 68 68 68 215 215 215 215
 215 48 48 69 20 20 20 20 20 55 163 47 47 47 47 99 99 99 99 99
 99 68 68 68 68 48 48 48 215 48 48 69 69 69 20 20 212 20 163 163
 47 47 47 47 82 99 99 99 99 99 68 68 68 68 48 48 48 48 48 69
 69 69 69 69 61 61 163 163 163 47 47 47 82 82 82 99 99 99 99 68
 68 68 209 48 48 48 48 48 69 69 69 59 59 61 61 144 144 144 47 47
 82 82 82 41 41 41 172 172 68 68 209 209 209 48 48 48 59 59 59 59
 59 59 61 144 144 144 144 93 93 93 82 82 82 41 172 172 172 172 172 209
 209 209 48 48 59 59 59 59 59 59 59 144 144 144 144 144 241 241 241 241
 82 82 172 172 172 172 172 172 209 209 209 48 59 59 59 59 59 59 59 59
 144 144 144 144 61 241 241 241 241 241 172 172 172 172 172 172 172 172 64 64
 64 59 59 59 59 59 59 59 59 144 144 144 61 241 241 241 241 241 241 172
 172 172 172 172 172 172 64 64 64 64 70 59 59 152 152 152 152 104 104 104
 144 61 241 241 241 241 241 241 172 172 172 172 172 172 64 64 64 64 64 70
 70 152 152 152 152 138 138 138 104 144 241 241 241 241 241 241 241 172 172 172
 172 172 172 64 64 64 64 213 70 70 152 152 152 152 138 138 138 138 138 241
 241 5 5 5 5 5 52 52 52 52 52 52 64 64 64 213 213 213 70 152
 152 152 138 138 138 138 138 193 193 241 5 5 5 5 52 52 52 52 52 52
 52 52 64 213 213 197 213 213 70 38 38 138 138 138 138 193 193 193 193 94
 94 94 94 175 175 52 52 52 52 52 52 64 213 213 213 213 213 70 38 38
 138 138 138 193 193 193 193 193 94 94 94 94 175 175 52 52 52 52 52 33
 33 213 213 213 213 213 38 38 38 138 138 90 90 90 193 193 193 94 94 94
 94 140 140 140 140 140 52 33 33 33 33 18 18 18 213 38 191 191 217 90
 90 90 90 90 90 90 94 94 94 140 140 140 140 140 140 140 33 33 33 33
 18 18 18 18 18 191 217 217 90 90 90 90 90 90 17 17 17 17 17 140
 140 140 140 140 140 33 33 33 33 18 18 18 18 18 217 217 217 217 90 90
 90 90 90 17 17 17 17 17 198 140 140 140 140 140 33 33 33 33 18 18
 18 18 18 217 217 217 217 217 29 90 90 90 17 17 17 17 17 187 187 187
 187 187 187 33 33 33 33 188 54 54 54 54 217 217 217 217 217 29 29 29
 29 17 17 17 17 17 187 187 187 187 187 187 188 188 188 188 188 54 54 54
 54 217 217 217 217 217 29 29 29 216 17 17 17 17 17 187 187 187 187 187
 187 24 188 188 188 188 54 54 54 54 101 101 217 217 217 29 29 216 216 216
 216 17 184 184 184 187 187 187 187 24 24 188 188 188 188 54 54 54 54 101
 101 101 228 228 228 216 216 216 216 216 216 184 184 184 187 187 187 187 24 24
 188 188 188 54 54 54 54 54 101 101 101 228 228 228 216 216 216 216 216 184
 184 184 184 184 187 187 24 24 24 188 188 188 54 54 54 54 101 101 101 101
 101 228 228 216 216 216 216 15 15 184 184 184 184 99 99 99 99 24 188 188
 54 54 54 54 54 101 101 101 101 20 20 20 20 216 216 216 15 15 15 184
 184 99 99 99 99 99 99 99 188 54 54 215 215 215 215 215 101 101 20 20
 20 20 20 55 55 15 15 15 15 99 99 99 99 99 99 99 99 99 54 215
 215 215 215 215 215 215 20 20 20 20 20 20 55 55 55 15 15 15 99 99
 99 99 99 99 99 99 68 215 215 215 215 215 215 215 215 20 20 20 20 20
 20 55 55 55 47 47 47 99 99 99 99 99 99 99 68 68 68 215 215 215
 215 215 48 48 48 20 20 20 20 55 55 55 163 47 47 47 27 27 27 27
 27 27 27 68 68 48 48 48 48 48 48 48 69 69 69 20 20 20 55 163
 163 163 47 47 47 27 27 27 27 27 27 27 68 68 48 48 48 48 48 48
 69 69 69 69 69 61 61 61 163 163 163 47 47 82 82 27 27 27 27 27
 68 68 68 48 48 48 48 48 48 69 69 69 59 59 61 61 61 61 163 163
 47 47 82 82 41 41 172 172 172 172 172 209 48 48 48 48 48 48 59 59
 59 59 59 61 61 61 61 61 61 93 93 82 82 82 172 172 172 172 172 172
 172 209 48 48 48 48 59 59 59 59 59 59 61 61 61 61 61 61 241 241
 241 241 172 172 172 172 172 172 172 172 172 64 48 48 59 59 59 59 59 59
 59 61 61 61 61 61 241 241 241 241 241 172 172 172 172 172 172 172 172 172
 64 64 59 59 59 59 59 59 59 59 61 61 61 61 241 241 241 241 241 241
 172 172 172 172 172 172 172 64 64 64 64 70 59 59 152 152 152 152 152 61
 61 61 61 241 241 241 241 241 241 172 172 172 172 172 172 172 64 64 64 70
 70 70 152 152 152 152 138 138 138 61 61 61 241 241 241 241 241 241 172 172
 172 172 172 172 64 64 64 64 70 70 70 152 152 152 138 138 138 138 138 61
 157 241 241 241 241 241 241 52 52 52 52 52 149 149 64 64 213 213 70 70
 70 152 138 138 138 138 138 138 157 157 157 157 157 241 241 52 52 52 52 52
 52 149 149 64 213 213 213 213 70 70 152 138 138 138 138 138 138 157 157 157
 157 157 157 157 52 52 52 52 52 52 52 149 149 213 213 213 213 70 70 191
 191 138 138 138 90 90 157 157 157 157 157 157 157 52 52 52 52 52 52 52
 33 33 213 213 213 213 213 70 191 191 191 90 90 90 90 90 157 157 157 157
 157 140 140 140 140 140 140 52 33 33 33 18 18 18 18 18 18 191 191 191
 90 90 90 90 90 90 157 157 157 17 140 140 140 140 140 140 140 33 33 33
 33 18 18 18 18 18 191 191 90 90 90 90 90 90 90 90 17 17 17 17
 140 140 140 140 140 140 33 33 33 33 18 18 18 18 18 217 217 217 217 90
 90 90 90 90 17 17 17 17 17 140 140 140 140 140 140 33 33 33 33 18
 18 18 18 18 217 217 217 217 29 29 90 90 90 17 17 17 17 17 17 187
 187 187 187 187 33 33 33 188 18 18 18 54 54 217 217 217 217 29 29 29
 29 29 17 17 17 17 17 187 187 187 187 187 187 24 188 188 188 188 54 54
 54 54 217 217 217 217 29 29 29 29 216 216 17 17 17 17 187 187 187 187
 187 24 24 188 188 188 188 54 54 54 54 101 101 217 217 29 29 29 216 216
 216 216 17 17 184 184 187 187 187 24 24 24 188 188 188 188 54 54 54 54
 101 101 101 228 228 228 216 216 216 216 216 216 184 184 184 184 187 187 24 24
 24 24 188 188 54 54 54 54 54 101 101 101 228 228 228 216 216 216 216 216
 216 184 184 184 184 187 24 24 24 24 24 188 188 54 54 54 54 101 101 101
 101 228 228 228 216 216 216 216 216 15 184 184 184 184 27 27 24 24 24 24
 24 54 54 54 54 54 101 101 101 101 228 20 20 20 216 216 216 15 15 15
 184 184 27 27 27 27 27 27 24 24 54 54 215 215 215 215 215 101 101 20
 20 20 20 55 55 55 55 15 15 15 27 27 27 27 27 27 27 27 143 143
 215 215 215 215 215 215 215 20 20 20 20 20 55 55 55 55 55 15 15 27
 27 27 27 27 27 27 27 143 143 215 215 215 215 215 215 215 20 20 20 20
 20 55 55 55 55 55 47 27 27 27 27 27 27 27 27 27 143 143 215 215
 215 215 215 48 48 48 229 229 229 229 55 55 55 55 47 47 47 27 27 27
 27 27 27 27 143 143 48 48 48 48 48 48 48 48 69 229 229 229 229 229
 163 163 163 47 47 47 27 27 27 27 27 27 27 68 143 48 48 48 48 48
 48 48 69 69 69 229 229 229 61 163 163 163 163 47 47 27 27 27 27 27
 27 172 68 48 48 48 48 48 48 48 48 69 69 59 61 61 61 61 61 163
 163 163 47 82 82 27 27 172 172 172 172 172 48 48 48 48 48 48 48 59
 59 59 59 61 61 61 61 61 61 61 61 93 82 82 172 172 172 172 172 172
 172 172 100 48 48 48 48 59 59 59 59 59 61 61 61 61 61 61 61 241
 241 241 241 172 172 172 172 172 172 172 172 172 100 48 48 59 59 59 59 59
 59 61 61 61 61 61 61 241 241 241 241 241 172 172 172 172 172 172 172 172
 172 64 70 59 59 59 59 59 59 59 61 61 61 61 61 61 241 241 241 241
 241 172 172 172 172 172 172 172 172 64 64 70 70 70 59 152 152 152 138 138
 61 61 61 61 61 241 241 241 241 241 172 172 172 172 172 172 172 64 64 64
 70 70 70 70 152 152 152 138 138 138 61 61 61 61 241 241 241 241 241 172
 172 172 172 172 172 172 64 64 64 70 70 70 70 152 152 138 138 138 138 138
 157 157 157 157 157 241 241 218 52 52 52 149 149 149 149 64 64 70 70 70
 70 70 16 16 138 138 138 138 138 157 157 157 157 157 157 157 52 52 52 52
 149 149 149 149 149 213 213 70 70 70 70 16 16 138 138 138 138 157 157 157
 157 157 157 157 157 52 52 52 52 52 149 149 149 149 213 213 213 70 70 70
 191 191 191 138 138 90 157 157 157 157 157 157 157 157 52 52 52 52 52 52
 149 149 149 18 18 18 18 70 70 191 191 191 191 90 90 90 157 157 157 157
 157 157 157 62 62 62 62 62 62 62 33 33 18 18 18 18 18 18 191 191
 191 90 90 90 90 90 157 157 157 157 178 178 62 62 62 62 62 62 33 33
 33 18 18 18 18 18 18 191 191 191 90 90 90 90 90 90 178 178 178 178
 178 62 62 62 62 62 62 62 33 33 18 18 18 18 18 18 191 191 217 29
 90 90 90 90 90 178 178 178 178 178 178 62 62 62 62 62 62 33 33 18
 18 18 18 18 18 217 217 217 29 29 29 29 29 29 178 178 178 178 178 178
 187 187 187 62 62 62 33 33 18 18 18 18 18 18 217 217 217 29 29 29
 29 29 29 17 17 17 17 17 187 187 187 187 187 24 24 24 188 188 188 54
 54 54 54 217 217 217 29 29 29 29 29 216 216 216 17 17 17 187 187 187
 187 24 24 24 24 188 188 188 54 54 54 54 101 228 228 228 29 29 29 216
 216 216 216 216 216 184 184 187 187 187 24 24 24 24 188 188 188 54 54 54
 54 101 228 228 228 228 228 216 216 216 216 216 216 216 184 184 184 187 24 24
 24 24 24 24 188 54 54 54 54 54 101 228 228 228 228 228 216 216 216 216
 216 216 216 184 184 184 184 24 24 24 24 24 24 188 54 54 54 54 54 101
 101 228 228 228 228 216 216 216 216 216 216 184 184 184 184 27 27 24 24 24
 24 24 188 54 54 54 54 101 89 89 228 228 228 228 216 216 216 216 216 216
 15 49 49 27 27 27 27 27 24 24 24 143 143 215 215 215 215 215 89 228
 20 20 20 20 55 55 55 55 55 15 15 27 27 27 27 27 27 27 143 143
 143 143 215 215 215 215 215 215 230 20 20 20 20 55 55 55 55 55 55 55
 27 27 27 27 27 27 27 143 143 143 143 215 215 215 215 48 48 230 20 20
 20 20 55 55 55 55 55 55 27 27 27 27 27 27 27 27 143 143 143 143
 48 48 48 48 48 48 48 229 229 229 229 229 55 55 55 47 47 47 27 27
 27 27 27 27 27 143 143 143 143 48 48 48 48 48 48 48 229 229 229 229
 229 163 163 163 47 47 47 180 27 27 27 27 27 27 143 143 143 48 48 48
 48 48 48 48 69 229 229 229 229 229 163 163 163 163 47 47 180 27 27 27
 27 181 181 143 143 48 48 48 48 48 48 48 59 59 59 229 61 61 61 61
 61 163 163 47 115 180 180 27 181 181 181 181 181 100 48 48 48 48 48 48
 59 59 59 59 61 61 61 61 61 61 61 61 61 115 115 180 181 181 181 181
 181 181 100 100 100 48 48 48 48 59 59 59 59 61 61 61 61 61 61 61
 61 241 241 172 172 172 172 181 181 181 172 172 100 100 48 48 48 59 125 125
 59 59 61 61 61 61 61 61 61 241 241 241 172 172 172 172 172 172 172 172
 172 172 100 70 48 59 59 125 125 125 125 61 61 61 61 61 61 61 241 241
 241 172 172 172 172 172 172 172 172 172 172 70 70 70 70 125 125 125 125 138
 138 61 61 61 61 61 241 241 241 241 172 172 172 172 172 172 172 172 172 64
 70 70 70 70 70 16 16 16 138 138 138 61 61 61 61 241 241 241 218 218
 172 172 172 172 172 172 172 172 64 70 70 70 70 70 16 16 16 138 138 138
 138 157 157 157 157 157 157 218 218 172 172 172 149 149 149 149 149 64 70 70
 70 70 70 16 16 16 138 138 138 157 157 157 157 157 157 157 157 218 52 52
 52 149 149 149 149 149 213 70 70 70 70 70 16 16 16 16 138 138 157 157
 157 157 157 157 157 221 221 62 62 52 149 149 149 149 149 149 70 70 70 70
 70 191 191 191 191 138 90 157 157 157 157 157 157 157 221 62 62 62 62 62
 149 149 149 149 18 18 18 18 70 70 191 191 191 191 191 90 90 157 157 157
 157 157 157 71 62 62 62 62 62 62 62 149 18 18 18 18 18 18 191 191
 191 191 191 90 90 90 90 157 157 157 178 178 178 62 62 62 62 62 62 62
 33 33 18 18 18 18 18 191 191 191 191 191 90 90 90 90 90 178 178 178
 178 178 62 62 62 62 62 62 62 62 74 74 18 18 18 18 191 191 191 191
 29 29 90 90 90 90 178 178 178 178 178 62 62 62 62 62 62 62 74 74
 74 74 18 18 18 191 191 191 29 29 29 29 29 29 29 178 178 178 178 178
 178 62 117 117 117 62 62 74 74 74 74 18 18 18 191 191 29 29 29 29
 29 29 29 29 178 178 178 178 178 31 31 117 117 117 117 24 24 24 74 74
 54 54 54 195 195 29 29 29 29 29 29 29 216 216 216 216 17 31 31 31
 31 24 24 24 24 24 24 188 188 54 54 54 195 101 228 228 228 29 29 29
 216 216 216 216 216 216 31 31 31 31 24 24 24 24 24 24 24 188 54 54
 54 54 101 228 228 228 228 29 216 216 216 216 216 216 216 184 31 31 31 24
 24 24 24 24 24 24 54 54 54 54 54 89 228 228 228 228 228 216 216 216
 216 216 216 216 49 49 49 49 24 24 24 24 24 24 24 54 54 54 54 89
 89 89 228 228 228 228 216 216 216 216 216 216 49 49 49 49 27 27 24 24
 24 24 24 24 143 54 54 89 89 89 89 89 228 228 228 216 216 216 216 216
 216 49 49 49 49 27 27 27 24 24 24 143 143 143 143 215 215 89 89 89
 89 230 230 20 20 55 55 55 55 55 49 49 49 27 27 27 27 27 27 143
 143 143 143 143 215 215 89 215 89 230 230 230 229 229 55 55 55 55 55 55
 49 27 27 27 27 27 27 27 143 143 143 143 143 48 48 48 48 48 230 230
 229 229 229 55 55 55 55 55 55 27 27 27 27 27 27 27 27 143 143 143
 143 48 48 48 48 48 48 229 229 229 229 229 229 55 55 55 47 47 180 180
 180 27 27 27 27 27 143 143 143 143 48 48 48 48 48 48 229 229 229 229
 229 229 229 163 163 47 47 180 180 180 180 27 27 27 154 143 143 143 48 48
 48 48 48 48 48 229 229 229 229 229 229 229 163 163 163 115 180 180 180 180
 27 154 181 154 154 143 48 48 48 48 48 48 48 59 158 158 158 158 158 61
 61 61 163 115 115 115 180 180 180 154 154 181 154 154 100 100 48 48 48 48
 48 125 125 125 158 158 158 61 61 61 61 61 61 115 115 115 180 181 181 181
 181 181 154 100 100 100 48 48 48 48 125 125 125 125 61 61 61 61 61 61
 61 61 115 115 115 181 181 181 181 181 181 181 100 100 100 100 48 125 125 125
 125 125 125 61 61 61 61 61 61 61 87 87 87 172 172 172 172 181 181 181
 172 172 100 100 100 125 125 125 125 125 125 125 125 61 61 61 61 61 61 87
 87 87 218 172 172 172 172 172 172 172 172 100 70 70 70 125 125 125 125 125
 125 125 61 61 61 61 61 87 87 218 218 218 172 172 172 172 172 172 172 172
 70 70 70 70 70 125 125 125 125 125 138 138 146 146 61 157 87 87 218 218
 218 218 172 172 172 172 172 172 172 70 70 70 70 70 125 16 16 16 16 138
 138 157 157 157 157 157 157 218 218 218 218 153 153 153 149 149 149 149 70 70
 70 70 70 16 16 16 16 16 138 226 157 157 157 157 157 157 157 218 218 153
 153 153 153 149 149 149 149 149 70 70 70 70 16 16 16 16 16 16 226 157
 157 157 157 157 157 157 221 221 62 153 153 153 153 149 149 149 149 70 70 70
 70 16 191 191 191 191 226 157 157 157 157 157 157 157 157 221 221 62 62 62
 62 62 149 149 149 18 18 18 18 70 16 191 191 191 191 191 157 157 157 157
 157 157 157 157 71 71 62 62 62 62 62 62 62 74 18 18 18 18 18 191
 191 191 191 191 90 90 90 157 157 157 157 178 178 71 71 62 62 62 62 62
 62 74 74 74 18 18 18 18 191 191 191 191 191 90 90 90 90 157 178 178
 178 178 178 71 62 62 62 62 62 62 74 74 74 74 18 18 18 191 191 191
 191 29 29 29 29 29 178 178 178 178 178 178 71 62 62 62 62 62 62 74
 74 74 74 74 18 18 191 191 191 191 29 29 29 29 29 29 178 178 178 178
 178 178 117 117 117 117 117 117 74 74 74 74 74 74 195 195 195 29 29 29
 29 29 29 29 29 178 178 178 178 31 31 31 117 117 117 117 117 24 74 74
 74 74 195 195 195 195 195 29 29 29 29 29 29 216 216 216 178 31 31 31
 31 31 117 117 24 24 24 24 74 74 195 195 195 195 195 228 228 29 29 29
 29 216 216 216 216 216 216 31 31 31 31 31 24 24 24 24 24 24 137 195
 195 195 195 89 228 228 228 228 29 216 216 216 216 216 216 216 31 31 31 31
 24 24 24 24 24 24 24 137 195 195 195 195 89 89 228 228 228 228 216 216
 216 216 216 216 49 49 49 31 31 24 24 24 24 24 24 24 54 195 195 195
 195 89 89 89 228 228 228 216 216 216 216 216 216 49 49 49 49 27 24 24
 24 24 24 24 24 143 143 195 89 89 89 89 89 230 230 230 216 216 216 216
 216 216 49 49 49 49 27 27 27 24 24 24 143 143 143 143 143 89 89 89
 89 230 230 230 230 55 55 55 55 55 55 49 49 49 27 27 27 27 27 27
 143 143 143 143 143 143 215 89 32 32 230 230 230 229 229 55 55 55 55 55
 49 49 27 27 27 27 27 27 27 143 143 143 143 143 48 48 48 48 32 230
 230 229 229 229 229 55 55 55 55 55 27 27 27 27 27 27 27 27 143 143
 143 143 143 48 48 48 32 32 32 229 229 229 229 229 55 55 55 115 180 180
 180 180 180 180 27 27 143 143 143 143 143 48 48 48 48 48 32 32 229 229
 229 229 229 229 163 163 115 115 180 180 180 180 180 180 154 154 143 143 143 48
 48 48 48 48 48 48 158 158 158 158 229 229 229 163 115 115 115 115 180 180
 180 180 154 154 154 154 114 114 114 48 48 48 48 48 125 158 158 158 158 158
 158 61 61 115 115 115 115 180 180 180 154 154 154 154 154 154 100 100 48 48
 48 48 125 125 125 158 158 158 158 158 61 61 61 115 115 115 115 180 154 154
 154 154 154 154 100 100 100 100 100 48 125 125 125 125 125 158 158 61 61 61
 61 61 115 115 115 115 115 154 154 154 154 154 154 100 100 100 100 100 125 125
 125 125 125 125 125 61 61 61 61 61 61 87 87 87 115 154 154 154 154 154
 154 154 100 100 100 100 100 125 125 125 125 125 125 125 61 61 61 61 61 87
 87 87 87 218 218 154 154 154 154 154 154 100 100 100 100 125 125 125 125 125
 125 125 125 125 146 146 146 87 87 87 218 218 218 218 172 172 172 172 172 172
 172 100 70 70 70 125 125 125 125 125 125 125 146 146 146 146 87 87 87 218
 218 218 218 153 153 153 153 153 153 153 70 70 70 70 70 125 16 16 16 16
 226 226 146 146 157 157 87 87 218 218 218 218 153 153 153 153 153 153 153 70
 70 70 70 70 16 16 16 16 16 226 226 226 157 157 157 157 157 218 218 218
 218 153 153 153 153 153 153 153 153 70 70 70 70 16 16 16 16 16 226 226
 226 157 157 157 157 157 221 221 221 221 153 153 153 153 153 153 153 153 70 70
 70 70 16 191 191 191 191 226 226 226 157 157 157 157 157 221 221 221 62 62
 62 62 153 153 25 25 74 109 109 109 109 16 191 191 191 191 226 226 157 157
 157 157 157 157 221 221 71 71 62 62 62 62 25 25 74 74 109 109 109 109
 191 191 191 191 191 191 90 157 157 157 157 157 178 178 71 71 71 62 62 62
 62 62 74 74 74 109 109 109 109 191 191 191 191 191 191 90 90 157 157 56
 178 178 178 71 71 71 62 62 62 62 62 74 74 74 74 109 109 109 191 191
 191 191 191 29 29 29 29 56 56 178 178 178 178 71 71 117 117 117 117 74
 74 74 74 74 74 74 74 191 191 191 191 29 29 29 29 29 56 56 56 178
 178 178 71 117 117 117 117 117 117 74 74 74 74 74 74 195 195 195 195 29
 29 29 29 29 29 56 56 56 56 178 31 31 31 117 117 117 117 117 74 74
 74 74 74 195 195 195 195 195 29 29 29 29 29 29 216 216 56 56 31 31
 31 31 31 117 117 117 24 24 137 137 137 195 195 195 195 195 237 237 29 29
 29 29 216 216 216 216 216 31 31 31 31 31 31 117 24 24 24 137 137 137
 195 195 195 195 237 237 237 237 29 29 216 216 216 216 216 216 31 31 31 31
 31 31 24 24 24 24 24 137 137 195 195 195 195 237 237 237 237 228 228 216
 216 216 216 216 216 49 49 31 31 31 31 24 24 24 24 24 24 137 195 195
 195 195 237 237 237 89 228 228 216 216 216 216 216 216 49 49 49 49 31 24
 24 24 24 24 24 143 143 195 195 195 89 89 89 89 230 230 230 216 216 216
 216 216 216 49 49 49 49 27 27 27 24 24 65 143 143 143 143 143 89 89
 32 32 230 230 230 230 55 55 55 55 55 55 49 49 49 49 27 27 27 27
 143 143 143 143 143 143 143 89 89 32 32 230 230 230 229 229 55 55 55 55
 55 49 49 49 27 27 27 27 27 143 143 143 143 143 143 48 48 32 32 32
 32 230 229 229 229 229 55 55 55 55 49 180 180 180 27 27 27 27 143 143
 143 143 143 143 48 48 32 32 32 32 229 229 229 229 229 229 55 115 115 180
 180 180 180 180 180 180 180 114 114 114 114 114 114 48 48 48 48 32 32 158
 158 229 229 229 229 229 115 115 115 180 180 180 180 180 180 154 154 114 114 114
 114 114 48 48 48 48 10 158 158 158 158 158 158 158 158 115 115 115 115 180
 180 180 180 154 154 154 154 114 114 114 114 48 48 48 10 10 158 158 158 158
 158 158 158 158 115 115 115 115 115 180 180 154 154 154 154 154 100 100 100 100
 48 48 48 10 10 125 158 158 158 158 158 158 158 115 115 115 115 115 115 180
 154 154 154 154 154 100 100 100 100 100 125 125 125 125 125 125 158 158 158 158
 61 61 115 115 115 115 115 115 154 154 154 154 154 154 100 100 100 100 100 125
 125 125 125 125 125 125 158 61 61 61 61 87 87 87 115 115 115 154 154 154
 154 154 154 100 100 100 100 100 125 125 125 125 125 125 125 146 146 146 146 87
 87 87 87 87 87 218 154 154 154 154 154 154 100 100 100 100 125 125 125 125
 125 125 125 125 146 146 146 146 87 87 87 87 218 218 218 218 154 154 154 154
 154 100 100 100 70 125 125 125 125 125 125 125 125 146 146 146 146 87 87 87
 218 218 218 218 218 153 153 153 153 153 153 100 70 70 70 125 125 35 35 35
 226 226 226 146 146 146 87 87 87 218 218 218 218 153 153 153 153 153 153 153
 153 70 70 70 168 16 16 16 16 226 226 226 226 146 58 58 87 87 87 218
 218 153 153 153 153 153 153 153 153 153 176 70 168 168 168 23 23 23 226 226
 226 226 58 58 58 58 58 221 221 221 221 153 153 153 153 153 153 153 153 109
 109 109 168 16 23 23 23 112 226 226 226 58 58 58 58 58 221 221 221 71
 62 25 25 25 25 25 25 109 109 109 109 109 23 191 191 112 112 112 112 226
 58 58 58 58 58 221 221 71 71 62 62 25 25 25 25 74 109 109 109 109
 109 191 191 191 112 112 112 112 112 58 58 58 56 56 71 71 71 71 71 62
 62 25 25 74 74 74 109 109 109 109 191 191 191 191 112 112 112 119 119 56
 56 56 56 56 71 71 71 71 62 62 25 25 74 74 74 74 109 109 109 191
 191 191 191 112 112 119 119 119 56 56 56 56 56 71 71 71 117 117 117 117
 74 74 74 74 74 74 109 109 191 191 191 191 112 29 119 119 119 56 56 56
 56 56 56 71 117 117 117 117 117 74 74 74 74 74 74 74 74 195 195 195
 196 29 29 119 119 119 119 56 56 56 56 31 31 31 117 117 117 117 117 74
 74 74 74 74 195 195 195 195 195 195 29 29 119 119 119 225 225 225 56 31
 31 31 31 31 117 117 117 117 137 137 137 137 195 195 195 195 195 237 237 237
 29 29 119 225 225 225 225 225 31 31 31 31 31 31 117 117 24 137 137 137
 137 195 195 195 195 237 237 237 237 237 29 86 86 86 86 86 86 31 31 31
 31 31 31 31 24 24 137 137 137 137 195 195 195 195 237 237 237 237 237 237
 86 86 86 86 86 86 31 31 132 132 31 31 31 24 24 65 65 137 137 195
 195 195 237 237 237 237 237 237 237 86 86 86 86 86 86 49 49 132 132 31
 31 24 65 65 65 65 65 65 195 195 195 237 237 237 237 230 230 230 86 86
 86 86 86 86 49 49 49 49 27 27 27 65 65 65 65 65 143 143 195 89
 89 32 32 32 230 230 230 230 86 86 55 55 55 49 49 49 49 27 27 27
 65 65 65 65 143 143 143 143 32 32 32 32 32 32 230 229 229 229 55 55
 55 55 49 49 180 180 27 27 27 65 65 65 143 143 143 143 48 32 32 32
 32 32 32 229 229 229 229 55 55 55 55 180 180 180 180 180 27 27 65 65
 143 143 143 143 143 48 48 32 32 32 32 32 229 229 229 229 229 40 115 115
 115 180 180 180 180 180 60 60 114 114 114 114 114 114 114 48 48 32 32 32
 158 158 158 158 158 158 115 115 115 115 115 180 180 180 60 60 154 114 114 114
 114 114 114 114 48 48 10 10 158 158 158 158 158 158 158 158 115 115 115 115
 115 180 180 180 154 154 154 114 114 114 114 114 114 48 10 10 10 10 158 158
 158 158 158 158 158 115 115 115 115 115 115 180 154 154 154 154 154 114 114 114
 114 114 10 10 10 10 10 158 158 158 158 158 158 158 115 115 115 115 115 115
 115 154 154 154 154 154 100 100 100 100 100 10 10 10 10 10 10 158 158 158
 110 110 110 115 115 115 115 115 115 115 154 154 154 154 154 100 100 100 100 100
 10 10 125 125 125 125 125 110 110 110 110 87 87 87 87 87 115 115 154 154
 154 154 154 154 100 100 100 100 125 125 125 125 125 125 125 125 110 146 146 146
 87 87 87 87 87 87 218 154 154 154 154 154 154 100 100 100 240 125 125 125
 125 125 125 125 125 146 146 146 146 87 87 87 87 87 218 218 218 154 154 154
 154 153 153 100 176 240 125 125 125 35 35 35 35 146 146 146 146 146 87 87
 87 87 218 218 218 218 153 153 153 153 153 153 176 176 176 168 168 35 35 35
 35 35 226 226 146 146 146 87 87 87 87 218 218 218 153 153 153 153 153 153
 153 176 176 176 168 168 168 35 35 35 226 226 226 226 146 146 58 87 87 87
 87 218 218 153 153 153 153 153 153 153 176 176 176 168 168 168 23 23 23 226
 226 226 226 58 58 58 58 58 221 221 221 221 25 25 25 25 25 25 25 25
 176 176 168 168 168 23 23 23 112 226 226 226 58 58 58 58 58 221 221 221
 71 25 25 25 25 25 25 25 109 109 109 109 109 23 23 23 112 112 112 112
 226 58 58 58 58 58 221 221 71 71 71 25 25 25 25 25 25 109 109 109
 109 109 23 23 112 112 112 112 112 112 58 58 56 56 56 71 71 71 71 71
 25 25 25 25 25 74 74 109 109 109 109 23 191 112 112 112 112 112 119 119
 56 56 56 56 56 71 71 71 71 25 25 25 25 74 74 74 74 109 109 109
 109 196 112 112 112 112 119 119 119 56 56 56 56 56 71 71 71 117 117 117
 117 74 74 74 74 74 74 109 109 109 196 196 112 112 119 119 119 119 119 56
 56 56 56 56 71 117 117 117 117 117 74 74 74 74 74 74 74 195 195 195
 196 196 196 119 119 119 119 119 225 56 56 56 31 31 117 117 117 117 117 117
 74 74 74 74 74 195 195 195 195 195 196 196 119 119 119 119 225 225 225 225
 31 31 31 31 117 117 117 117 137 137 137 137 137 137 195 195 195 195 237 237
 237 119 119 119 225 225 225 225 225 31 31 31 31 31 31 117 117 137 137 137
 137 137 137 195 195 195 237 237 237 237 232 232 119 225 225 225 225 225 31 31
 31 31 31 31 31 117 137 137 137 137 137 137 195 195 195 237 237 237 237 237
 232 86 86 86 86 86 86 31 31 132 132 132 31 31 65 65 65 65 137 137
 137 195 195 237 237 237 237 237 237 232 86 86 86 86 86 86 86 49 132 132
 132 31 65 65 65 65 65 65 137 107 195 195 237 237 237 237 237 45 45 86
 86 86 86 86 86 86 49 132 132 132 31 65 65 65 65 65 65 65 107 107
 107 237 32 32 32 32 230 73 73 86 86 86 86 86 49 49 49 132 27 27
 65 65 65 65 65 65 143 107 107 32 32 32 32 32 32 32 73 73 73 86
 55 86 86 49 49 180 180 180 60 65 65 65 65 65 65 143 143 107 32 32
 32 32 32 32 73 229 229 229 40 40 40 40 180 180 180 180 180 60 60 65
 65 65 114 114 114 114 48 32 32 32 32 32 32 73 158 73 40 40 40 40
 115 115 115 115 60 60 60 60 60 60 114 114 114 114 114 114 165 165 130 130
 130 130 158 158 158 155 155 40 115 115 115 115 115 180 60 60 60 60 60 114
 114 114 114 114 114 165 165 130 130 130 130 158 158 158 155 155 155 115 115 115
 115 115 115 60 60 60 60 60 114 114 114 114 114 114 10 10 10 10 10 158
 158 158 158 155 155 155 115 115 115 115 115 115 115 60 60 154 154 154 114 114
 114 114 114 10 10 10 10 10 10 158 158 158 155 155 155 115 115 115 115 115
 115 115 154 154 154 154 154 100 135 135 240 240 10 10 10 10 10 10 110 110
 110 110 110 110 110 115 115 115 115 115 115 154 154 154 154 154 100 100 100 240
 240 240 10 10 10 10 10 110 110 110 110 110 110 87 87 87 115 115 115 154
 154 154 154 154 154 100 100 100 240 240 240 10 125 125 125 125 110 110 110 110
 110 110 87 87 87 87 87 87 154 154 154 154 154 154 100 100 240 240 240 240
 125 35 35 35 35 146 146 146 146 146 87 87 87 87 87 87 87 87 154 154
 154 154 154 153 176 176 240 240 240 35 35 35 35 35 146 146 146 146 146 87
 87 87 87 87 87 218 218 153 153 153 153 153 153 176 176 176 176 168 35 35
 35 35 35 146 146 146 146 146 87 87 87 87 87 87 87 153 153 153 153 153
 153 153 176 176 176 168 168 168 35 35 35 35 226 226 146 146 146 87 87 87
 87 87 87 25 25 25 25 25 25 25 25 176 176 176 168 168 168 23 23 23
 23 226 226 226 146 58 58 58 87 87 87 186 186 25 25 25 25 25 25 25
 176 176 176 168 168 168 23 23 23 112 112 226 226 58 58 58 58 58 221 221
 186 186 25 25 25 25 25 25 25 176 176 176 168 168 23 23 23 23 112 112
 112 112 58 58 58 58 58 221 71 71 186 25 25 25 25 25 25 25 109 109
 109 109 109 23 23 23 112 112 112 112 112 58 58 56 56 56 71 71 71 71
 71 25 25 25 25 25 74 74 109 109 109 109 23 23 112 112 112 112 112 112
 119 56 56 56 56 56 71 71 71 76 76 76 25 25 74 74 74 74 109 109
 109 109 196 196 112 112 112 112 119 119 119 56 56 56 56 71 71 76 76 76