# vtk DataFile Version 2.0
Data set from ImportExport Version 6.5.171.b0b162591
ASCII

DATASET RECTILINEAR_GRID
DIMENSIONS 30 30 30
X_COORDINATES 30 float
-1.250000 1.250000 3.750000 6.250000 8.750000 11.250000 13.750000 16.250000 18.750000 21.250000 23.750000 26.250000 28.750000 31.250000 33.750000 36.250000 38.750000 41.250000 43.750000 46.250000 48.750000 
51.250000 53.750000 56.250000 58.750000 61.250000 63.750000 66.250000 68.750000 71.250000 
Y_COORDINATES 30 float
-1.250000 1.250000 3.750000 6.250000 8.750000 11.250000 13.750000 16.250000 18.750000 21.250000 23.750000 26.250000 28.750000 31.250000 33.750000 36.250000 38.750000 41.250000 43.750000 46.250000 48.750000 
51.250000 53.750000 56.250000 58.750000 61.250000 63.750000 66.250000 68.750000 71.250000 
Z_COORDINATES 30 float
-1.250000 1.250000 3.750000 6.250000 8.750000 11.250000 13.750000 16.250000 18.750000 21.250000 23.750000 26.250000 28.750000 31.250000 33.750000 36.250000 38.750000 41.250000 43.750000 46.250000 48.750000 
51.250000 53.750000 56.250000 58.750000 61.250000 63.750000 66.250000 68.750000 71.250000 
CELL_DATA 24389
SCALARS FeatureIds int 1
LOOKUP_TABLE default
 237 237 237 223 191 191 191 137 137 137 137 137 163 163 37 37 37 37 244 244
 244 244 244 237 237 237 237 237 237 237 237 223 223 191 191 191 191 137 137 137
 137 163 163 37 37 37 37 179 179 179 179 179 237 237 237 237 237 237 237 237
 223 223 191 191 191 191 137 137 137 137 137 137 37 37 37 37 179 179 179 179
 189 189 237 237 237 237 237 237 223 223 223 191 191 191 191 11 11 11 11 11
 11 37 37 37 37 179 179 179 189 189 189 237 237 237 237 237 143 223 223 223
 191 191 191 191 11 11 11 11 11 11 11 37 37 37 179 179 189 189 189 189
 189 237 237 237 237 143 143 143 143 191 191 191 11 11 11 11 11 11 11 11
 11 188 188 188 188 188 189 189 189 189 189 237 237 237 143 143 143 143 143 191
 218 218 11 11 11 11 11 11 11 188 188 188 188 188 188 189 189 189 189 189
 189 33 33 143 143 143 143 143 218 218 218 218 11 11 11 11 11 188 188 188
 188 188 188 188 188 189 189 189 189 182 33 33 143 143 143 143 143 218 218 218
 218 218 11 11 11 11 188 188 188 188 188 188 188 188 41 41 189 182 182 33
 33 33 143 143 143 143 218 218 218 218 218 218 109 109 109 188 188 188 188 188
 188 188 188 41 41 122 122 122 122 33 122 143 143 143 218 218 218 218 218 218
 109 109 109 109 188 188 188 188 188 188 188 188 41 41 122 122 122 122 122 122
 220 220 107 107 107 218 218 218 218 109 109 109 165 165 165 188 188 188 188 188
 188 41 41 122 122 122 122 122 122 220 220 107 107 107 107 94 94 109 109 109
 109 165 165 165 165 188 188 188 188 212 212 212 122 122 122 122 122 122 220 220
 107 107 107 107 94 94 94 109 109 109 165 165 165 165 165 165 188 212 212 212
 212 122 122 122 122 122 122 220 220 107 107 107 107 94 94 94 109 109 165 165
 165 165 165 165 165 188 212 212 212 116 116 116 122 122 122 220 220 220 107 107
 107 107 94 94 94 109 63 63 63 63 63 63 63 63 63 212 212 116 116 116
 116 116 116 122 38 38 38 38 238 238 238 238 94 94 63 63 63 63 63 63
 63 63 63 63 63 116 116 116 116 116 116 116 116 38 38 38 38 238 238 238
 238 238 238 63 63 63 63 63 63 63 63 63 63 63 116 116 116 116 116 116
 116 116 38 38 38 38 238 238 238 238 238 238 63 63 63 63 63 63 63 63
 63 63 63 116 116 116 116 116 116 116 116 38 38 38 38 238 238 238 238 238
 238 196 196 196 146 146 146 146 146 63 209 209 209 116 116 116 116 116 116 116
 38 38 38 238 238 238 238 238 238 238 196 196 196 196 146 146 146 146 146 209
 209 209 209 209 116 116 116 116 116 130 130 130 130 130 238 238 238 238 196 196
 196 196 196 196 146 146 146 209 209 209 209 209 209 209 116 116 186 186 130 130
 130 130 130 130 238 238 26 26 196 196 196 196 196 196 146 155 155 155 209 209
 155 155 155 186 186 186 186 130 130 130 130 130 22 22 22 26 26 26 242 242
 242 242 242 242 155 155 155 155 155 155 155 155 155 186 186 186 130 130 130 130
 22 22 22 22 26 26 26 242 242 242 242 242 242 155 155 155 155 155 155 155
 155 155 186 186 186 130 130 130 130 22 22 22 22 26 26 26 26 242 242 242
 242 244 244 244 244 244 155 155 155 155 155 186 186 186 127 127 130 22 22 22
 22 22 26 26 26 26 242 242 242 242 244 244 244 244 244 244 120 120 120 120
 120 237 237 127 127 127 22 22 22 22 22 26 26 137 137 137 137 37 37 244
 244 244 244 244 244 120 120 120 120 237 237 237 237 127 127 127 22 22 22 22
 137 137 137 137 137 137 37 37 37 244 244 244 244 244 120 120 120 237 237 237
 237 237 237 237 223 191 191 191 137 137 137 137 137 163 163 37 37 37 37 244
 244 244 244 244 237 237 237 237 237 237 237 237 237 223 191 191 191 137 137 137
 137 137 137 137 37 37 37 37 179 179 179 244 244 237 237 237 237 208 237 237
 237 223 223 191 245 191 191 163 163 163 137 137 137 37 37 37 37 179 179 179
 189 189 189 237 237 237 237 237 237 237 223 223 245 245 245 11 11 11 11 11
 11 11 37 37 37 37 179 179 189 189 189 189 189 237 237 237 237 237 143 223
 223 240 240 240 240 11 11 11 11 11 11 11 37 37 37 188 189 189 189 189
 189 189 189 237 237 237 143 143 143 143 240 240 240 240 11 11 11 11 11 11
 11 11 188 188 188 188 189 189 189 189 189 189 189 143 143 143 143 143 143 240
 240 240 218 11 11 11 11 11 11 11 188 188 188 188 188 188 189 189 189 189
 189 189 143 143 143 143 143 143 240 43 43 218 218 11 11 11 11 11 188 188
 188 188 188 188 188 41 189 189 189 189 182 182 143 143 143 143 143 143 43 43
 218 218 218 11 11 11 168 188 188 188 188 188 188 188 41 41 41 189 182 182
 182 143 143 143 143 143 43 43 43 43 218 218 218 109 109 109 188 188 188 188
 188 188 188 41 41 41 41 182 182 182 182 122 220 143 143 43 43 43 43 218
 218 109 109 109 109 188 188 188 188 188 188 188 41 41 41 41 182 182 182 182
 220 220 220 220 43 43 43 43 218 109 109 109 109 109 165 165 188 188 188 188
 188 41 41 41 122 122 122 122 122 220 220 220 220 107 107 107 43 94 109 109
 109 109 165 165 165 165 188 188 188 188 212 212 202 122 122 122 122 220 220 220
 220 220 107 107 107 94 94 109 109 109 109 165 165 165 165 165 165 188 212 212
 202 202 202 116 122 122 220 220 220 220 220 107 107 107 94 94 94 109 109 109
 165 165 165 165 165 165 188 212 202 202 202 202 116 116 122 220 220 220 220 220
 107 107 107 94 94 94 109 103 103 63 63 63 63 63 63 63 202 202 202 202
 116 116 116 116 116 38 38 38 38 38 238 238 238 94 103 103 103 103 63 63
 63 63 63 63 63 202 202 202 116 116 116 116 116 116 38 38 38 38 38 238
 238 238 233 103 103 103 103 63 63 63 63 63 63 63 63 116 116 116 116 116
 116 116 116 38 38 38 38 38 238 238 238 233 233 79 79 79 63 63 63 63
 63 63 63 169 169 169 116 116 116 116 116 116 38 38 38 38 38 238 238 238
 233 233 79 79 79 79 146 146 146 146 63 209 209 209 169 169 169 116 116 116
 38 38 38 38 38 38 238 238 238 233 233 79 79 79 79 146 146 146 146 146
 209 209 209 209 169 169 169 116 116 38 38 38 130 130 130 238 238 238 233 26
 79 79 79 79 146 146 146 146 209 209 209 209 209 209 169 186 186 186 186 186
 130 130 130 130 130 22 22 26 26 196 196 196 196 196 196 146 155 155 209 209
 209 155 155 155 186 186 186 186 186 20 130 130 22 22 22 22 26 26 26 242
 242 242 242 242 242 155 155 155 155 155 155 155 155 186 186 186 186 186 130 130
 22 22 22 22 22 26 26 26 26 242 242 242 242 242 155 155 155 155 155 155
 155 155 186 186 186 186 130 130 130 22 22 22 22 22 26 26 26 26 242 242
 242 242 244 244 244 244 155 155 155 155 155 186 186 186 186 127 127 130 22 22
 22 22 22 26 26 26 26 26 242 242 244 244 244 244 244 244 244 120 120 120
 120 186 186 186 127 127 127 22 22 22 22 22 26 26 137 137 137 137 37 37
 244 244 244 244 244 244 120 120 120 237 237 237 237 237 127 127 22 22 22 22
 22 137 137 137 137 137 137 37 37 37 244 244 244 244 244 120 120 120 237 237
 237 237 237 237 237 245 245 245 245 154 137 137 137 137 137 137 37 37 37 37
 244 244 244 244 229 229 237 237 237 237 237 237 237 237 245 245 245 245 154 163
 163 163 137 137 137 37 37 37 37 244 244 244 52 229 229 237 237 237 237 237
 237 237 223 245 245 245 245 154 163 163 163 137 137 137 37 37 37 37 37 179
 189 189 189 189 237 237 237 237 237 237 237 223 245 245 245 245 154 11 11 11
 11 11 11 37 37 37 37 37 189 189 189 189 189 189 237 237 237 237 143 143
 143 240 240 240 240 240 11 11 11 11 11 11 11 37 37 37 188 189 189 189
 189 189 189 189 237 237 237 143 143 143 240 240 240 240 240 11 11 11 11 11
 11 11 11 188 188 188 188 189 189 189 189 189 189 189 143 143 143 143 143 240
 240 240 240 43 11 11 11 11 11 11 11 188 188 188 188 188 188 189 189 189
 189 189 189 143 143 143 143 143 143 240 240 43 43 43 11 11 11 168 168 168
 188 188 188 188 188 188 41 189 189 189 189 182 182 143 143 143 143 143 240 43
 43 43 43 43 11 11 168 168 168 188 188 188 188 188 41 41 41 41 189 182
 182 182 182 182 143 143 143 43 43 43 43 43 43 109 109 109 168 188 188 188
 188 188 188 41 41 41 41 41 182 182 182 182 182 220 220 220 43 43 43 43
 43 43 109 109 109 109 188 188 188 188 188 188 41 41 41 41 41 182 182 182
 182 220 220 220 220 220 43 43 43 43 109 109 109 109 109 165 165 188 188 188
 188 188 41 41 41 41 182 182 182 220 220 220 220 220 220 43 43 43 43 109
 109 109 109 165 165 165 165 188 188 188 188 41 41 202 202 202 119 122 220 220
 220 220 220 220 220 43 43 43 109 109 109 109 165 165 165 165 165 165 188 188
 202 202 202 202 202 202 220 220 220 220 220 220 220 107 107 94 94 109 109 109
 165 165 165 165 165 165 165 188 202 202 202 202 202 202 202 220 220 220 220 220
 220 220 220 107 94 94 8 8 103 103 103 63 63 63 63 63 63 202 202 202
 202 202 116 116 116 220 38 38 38 38 38 38 233 233 233 103 103 103 103 103
 63 63 63 63 63 63 202 202 202 202 116 116 116 116 116 38 38 38 38 38
 38 233 233 233 233 103 103 103 103 63 63 63 63 63 63 169 169 169 116 116
 116 116 116 116 38 38 38 38 38 233 233 233 233 233 79 79 103 103 63 63
 63 63 63 63 169 169 169 169 116 116 116 116 38 38 38 38 38 38 233 233
 233 233 233 79 79 79 79 146 146 146 146 63 209 169 169 169 169 169 116 116
 116 38 38 38 38 38 42 42 233 233 233 233 79 79 79 79 79 146 146 146
 209 209 209 209 157 169 169 169 116 116 186 186 20 38 42 42 42 42 42 233
 233 79 79 79 79 79 146 146 146 209 209 209 209 209 169 169 169 186 186 186
 20 20 20 42 42 42 42 42 26 26 207 207 207 207 207 146 146 209 209 209
 209 209 155 155 155 186 186 186 186 20 20 20 22 22 22 22 22 26 26 26
 207 207 207 207 207 146 155 155 209 155 155 155 155 155 186 186 186 186 20 20
 20 22 22 22 22 22 26 26 26 26 46 207 207 242 174 155 155 155 155 155
 155 155 155 186 186 186 186 20 20 130 22 22 22 22 22 26 26 26 26 46
 46 242 174 244 244 244 244 155 155 155 155 155 186 186 186 186 127 20 22 22
 22 22 22 22 26 26 26 26 46 46 37 244 244 244 244 244 244 244 155 155
 155 186 186 186 186 237 237 22 22 22 22 22 22 26 26 137 137 137 137 37
 37 244 244 244 244 244 244 244 229 120 237 237 237 237 237 237 127 22 22 22
 22 22 137 137 137 137 137 137 37 37 37 244 244 244 244 244 244 229 229 237
 237 237 237 70 70 70 245 245 245 154 154 154 205 205 205 205 137 5 5 5
 5 244 244 244 52 229 229 229 70 70 70 70 70 70 70 245 245 245 154 154
 154 205 205 205 205 137 5 5 5 5 244 244 52 52 229 229 229 70 70 70
 70 70 70 70 245 245 245 245 154 154 205 205 205 205 137 5 5 5 5 5
 52 52 52 229 229 229 70 70 70 70 70 70 70 245 245 245 245 154 154 11
 11 11 11 11 5 5 5 5 5 189 189 189 189 189 189 70 70 70 70 70
 70 143 240 240 240 240 154 154 11 11 11 11 11 11 5 5 31 188 189 189
 189 189 189 189 189 70 70 70 143 143 143 240 240 240 240 240 11 11 11 11
 11 11 11 11 31 31 188 188 189 189 189 189 189 189 189 70 143 143 143 143
 240 240 240 240 43 11 11 11 11 11 168 168 188 31 31 188 188 189 189 189
 189 189 189 189 182 143 143 143 143 143 240 240 43 43 43 11 11 168 168 168
 168 188 188 188 188 188 41 41 189 189 189 189 182 182 182 143 143 143 143 240
 43 43 43 43 43 11 168 168 168 168 188 188 188 188 188 41 41 41 41 189
 182 182 182 182 182 143 143 143 43 43 43 43 43 43 43 168 168 168 168 188
 188 188 188 188 41 41 41 41 41 182 182 182 182 182 220 220 220 43 43 43
 43 43 43 109 109 109 66 66 188 188 188 188 188 41 41 41 41 41 182 182
 182 182 220 220 220 220 220 43 43 43 43 43 109 109 109 66 66 165 188 188
 188 188 41 41 41 41 41 119 119 119 119 220 220 220 220 220 43 43 43 43
 43 109 109 109 66 165 165 165 188 188 188 41 41 41 202 202 119 119 119 220
 220 220 220 220 220 220 43 43 43 43 109 109 109 165 165 165 165 165 188 188
 202 202 202 202 202 202 119 220 220 220 220 220 220 220 220 43 43 8 8 8
 8 8 165 165 165 165 165 165 165 202 202 202 202 202 202 202 220 220 220 220
 220 220 220 220 233 233 8 8 8 8 103 103 139 139 139 139 139 139 202 202
 202 202 202 202 116 116 220 220 220 38 38 38 233 233 233 233 8 8 103 103
 103 103 63 63 63 63 63 202 202 202 202 202 116 116 116 220 38 38 38 38
 38 233 233 233 233 233 8 103 103 103 103 63 63 63 63 63 169 169 169 202
 116 116 116 116 116 38 38 38 38 38 233 233 233 233 233 233 103 103 103 103
 63 63 63 63 63 169 169 169 169 169 116 116 116 38 38 38 38 38 38 233
 233 233 233 233 233 79 79 79 79 146 146 146 63 209 169 169 169 157 169 169
 116 116 38 38 38 38 42 42 42 233 233 233 233 233 79 79 79 79 79 146
 146 209 209 209 209 169 169 169 169 116 186 186 186 20 20 42 42 42 42 42
 233 233 207 207 207 79 79 207 146 146 209 209 209 209 209 169 169 169 186 186
 186 20 20 20 42 42 42 42 42 42 233 207 207 207 207 207 207 207 209 209
 209 209 209 155 155 169 186 186 186 186 20 20 20 20 42 76 42 42 42 26
 46 207 207 207 207 207 174 174 155 209 155 155 155 155 155 186 186 186 186 20
 20 20 76 76 76 76 76 26 26 46 46 46 207 207 174 174 174 155 155 155
 155 155 155 155 186 186 186 186 20 20 20 76 76 76 76 76 26 26 46 46
 46 46 174 174 174 174 244 244 155 155 155 155 186 186 186 186 186 20 20 76
 76 76 76 76 76 26 26 46 46 46 46 174 174 174 244 244 244 244 244 155
 155 186 186 186 186 186 70 70 76 76 76 76 76 76 26 26 46 46 46 46
 37 5 244 244 244 244 244 244 244 229 229 70 70 70 70 70 70 70 76 76
 76 76 76 137 137 137 205 205 205 37 5 5 244 244 244 244 244 229 229 229
 70 70 70 70 70 70 70 70 34 34 154 154 226 226 226 226 226 226 5 5
 5 5 244 244 52 52 229 229 229 229 70 70 70 70 70 70 245 245 154 154
 154 154 226 226 226 226 226 5 5 5 5 5 52 52 52 229 229 229 229 70
 70 70 70 70 70 245 245 245 154 154 154 226 226 226 226 226 5 5 5 5
 5 52 52 52 229 229 229 229 70 70 70 70 70 70 245 245 245 154 154 154
 154 226 226 226 226 5 5 5 5 72 52 52 189 189 229 229 70 70 70 70
 70 70 240 240 240 240 154 154 154 154 185 185 185 185 11 5 31 31 31 31
 189 189 189 189 189 189 70 70 70 143 143 240 240 240 240 240 154 154 185 185
 185 185 185 11 31 31 31 31 31 189 189 189 189 189 189 70 70 70 143 143
 240 240 240 240 240 43 11 11 185 185 168 168 168 31 31 31 31 31 31 189
 189 189 189 189 189 182 182 143 143 143 240 240 240 43 43 43 43 168 168 168
 168 168 31 31 31 31 31 41 41 189 189 189 189 182 182 182 143 143 143 240
 240 43 43 43 43 43 168 168 168 168 168 168 31 31 31 31 41 41 41 41
 189 182 182 182 182 182 182 143 43 43 43 43 43 43 43 168 168 168 168 66
 66 188 188 188 188 41 41 41 41 41 182 182 182 182 119 220 220 220 43 43
 43 43 43 43 66 66 66 66 66 66 188 188 188 188 41 41 41 41 41 119
 119 119 119 220 220 220 220 220 43 43 43 43 43 66 66 66 66 66 66 188
 188 188 188 41 41 41 41 119 119 119 119 119 220 220 220 220 220 43 43 43
 43 43 66 66 66 66 66 66 165 188 188 188 41 41 41 202 119 119 119 119
 119 220 220 220 220 220 220 110 43 43 8 8 8 66 66 66 139 165 165 188
 188 202 202 202 202 202 119 119 119 220 220 220 220 220 220 150 150 150 8 8
 8 8 8 139 139 139 139 139 139 139 202 202 202 202 202 202 49 49 220 220
 220 220 220 220 150 150 233 8 8 8 8 8 139 139 139 139 139 139 139 202
 202 202 202 202 202 49 49 49 220 220 220 38 38 233 233 233 233 8 8 8
 103 103 139 139 139 139 139 61 61 202 202 202 202 49 49 49 49 38 38 38
 38 38 233 233 233 233 233 233 103 103 103 103 139 139 139 139 61 61 61 169
 202 116 116 49 49 49 38 38 38 38 38 233 233 233 233 233 233 103 103 103
 103 103 63 63 63 61 61 169 169 169 157 116 116 116 49 38 38 38 38 42
 233 233 233 233 233 233 79 79 79 79 79 146 146 235 61 61 169 169 169 169
 169 116 116 186 38 38 42 42 42 42 233 233 233 233 207 207 207 207 207 207
 146 146 235 235 209 169 169 169 169 169 169 186 186 186 20 42 42 42 42 42
 42 233 233 207 207 207 207 207 207 207 235 235 209 209 169 169 169 169 169 186
 186 186 20 20 20 42 42 42 42 42 42 233 207 207 207 207 207 207 174 174
 174 209 209 155 121 121 121 186 186 186 186 20 20 20 42 42 42 42 42 42
 46 46 207 207 207 207 207 174 174 174 174 155 155 121 121 121 186 186 186 186
 20 20 20 76 76 76 76 76 76 46 46 46 46 207 207 174 174 174 174 174
 174 155 121 121 121 186 186 186 186 20 20 20 76 76 76 76 76 26 46 46
 46 46 46 174 174 174 174 174 174 174 155 121 121 121 186 186 186 186 213 213
 213 76 76 76 76 76 76 46 46 46 46 46 174 174 174 174 174 174 174 244
 35 35 35 186 186 186 186 70 213 213 76 76 76 76 76 76 46 46 46 46
 46 174 174 174 174 174 244 244 244 229 229 229 70 70 70 70 70 70 70 76
 76 76 76 76 226 226 226 226 226 226 5 5 5 174 174 244 244 244 229 229
 229 70 70 70 70 70 70 70 34 34 34 34 154 226 226 226 226 226 226 5
 5 5 5 52 52 52 52 229 229 229 229 70 70 70 70 70 70 34 34 34
 154 154 154 226 226 226 226 226 5 5 5 5 52 52 52 52 52 229 229 229
 70 70 70 70 70 70 34 34 154 154 154 154 226 226 226 226 226 5 5 5
 72 72 52 52 52 229 229 229 229 70 70 70 70 70 70 245 245 154 154 154
 154 154 226 226 226 226 5 5 72 72 72 72 52 52 229 229 229 70 70 70
 70 70 70 240 240 240 154 154 154 154 154 185 185 185 185 185 5 72 72 72
 72 3 189 189 189 189 85 70 70 70 70 70 240 240 240 240 154 154 154 185
 185 185 185 185 185 31 31 31 31 31 3 3 189 189 189 85 85 85 70 143
 143 240 240 240 240 240 43 154 185 185 185 185 168 168 31 31 31 31 31 3
 3 189 189 189 85 85 85 70 143 143 143 240 240 240 43 43 43 43 185 168
 168 168 168 31 31 31 31 31 3 3 3 189 189 189 182 182 182 143 143 143
 43 43 43 43 43 43 43 168 168 168 168 168 31 31 31 31 31 3 3 3
 189 189 182 182 182 182 182 182 220 43 43 43 43 43 43 43 66 66 66 66
 66 66 31 31 31 31 41 41 41 41 41 182 182 182 119 119 220 220 220 43
 43 43 43 43 43 66 66 66 66 66 66 66 188 188 188 41 41 41 41 119
 119 119 119 119 119 220 220 220 110 110 110 110 110 110 66 66 66 66 66 66
 66 188 188 19 41 41 41 41 119 119 119 119 119 220 220 220 220 220 110 110
 110 110 110 66 66 66 66 66 66 66 66 188 19 19 41 41 202 119 119 119
 119 119 220 220 220 220 220 110 110 110 110 8 8 8 66 66 66 139 139 139
 139 19 19 202 202 202 202 119 119 119 119 220 220 220 220 220 150 150 150 150
 8 8 8 8 139 139 139 139 139 139 139 202 202 202 202 202 49 49 49 49
 220 220 220 220 220 150 150 150 150 8 8 8 8 139 139 139 139 139 139 61
 61 202 202 202 202 49 49 49 49 220 220 220 220 150 150 150 150 150 8 8
 8 8 103 139 139 139 139 139 61 61 61 61 202 202 49 49 49 49 114 38
 38 38 233 233 233 233 233 233 8 8 103 103 103 139 139 139 61 61 61 61
 61 61 116 49 49 49 49 114 38 38 38 233 233 233 233 233 233 233 103 103
 103 103 103 63 63 61 61 61 61 61 61 157 116 49 49 49 38 38 42 42
 42 233 233 233 233 233 233 207 207 207 207 207 207 235 235 61 61 61 169 169
 169 169 116 49 49 42 42 42 42 42 42 233 233 233 233 207 207 207 207 207
 207 207 235 235 235 235 61 169 169 169 169 169 186 186 186 42 42 42 42 42
 42 42 233 233 207 207 207 207 207 207 207 235 235 235 235 121 121 121 121 121
 186 186 186 20 20 42 42 42 42 42 42 42 233 207 207 207 207 207 207 174
 174 235 235 235 121 121 121 121 121 186 186 186 186 20 20 42 42 42 42 42
 42 46 46 46 207 207 207 207 174 174 174 174 174 121 121 121 121 121 186 186
 186 213 213 213 213 76 76 76 76 46 46 46 46 46 207 207 174 174 174 174
 174 174 121 121 121 121 121 186 186 186 213 213 213 213 76 76 76 76 46 46
 46 46 46 46 174 174 174 174 174 174 174 121 121 121 121 121 186 186 213 213
 213 213 213 76 76 76 76 46 46 46 46 46 46 174 174 174 174 174 174 174
 35 35 35 35 35 186 186 213 213 213 213 213 76 76 76 76 46 46 46 46
 46 46 174 174 174 174 174 174 174 35 35 35 35 70 70 70 70 70 213 7
 7 34 34 76 226 226 226 226 226 226 226 226 174 174 174 174 174 52 52 229
 229 229 70 70 70 70 70 70 70 34 34 34 34 34 226 226 226 226 226 226
 5 5 5 72 72 52 52 52 229 229 229 229 70 70 70 70 70 70 34 34
 34 34 154 154 226 226 226 226 226 5 5 72 72 72 52 52 52 229 229 229
 229 70 70 70 70 70 70 34 34 34 154 154 154 154 226 226 226 226 5 5
 72 72 72 72 52 52 229 229 229 229 70 70 70 70 70 70 34 34 154 154
 154 154 154 226 226 226 226 5 72 72 72 72 72 52 52 229 229 229 229 70
 70 70 70 70 89 240 240 154 154 154 154 154 185 185 185 185 60 72 72 72
 72 72 3 3 189 85 85 85 85 70 70 70 89 89 240 240 154 154 154 154
 185 185 185 185 185 185 31 31 31 31 3 3 3 3 85 85 85 85 85 70
 143 89 132 240 240 240 154 154 154 185 185 185 185 185 168 31 31 31 31 3
 3 3 3 203 203 85 85 85 85 143 132 132 132 240 240 43 43 43 185 185
 185 168 168 168 31 31 31 31 3 3 3 3 203 203 203 85 136 136 119 119
 132 132 43 43 43 43 43 43 185 168 168 168 168 31 31 31 31 31 3 3
 3 203 203 203 182 182 119 119 119 95 95 95 110 110 110 110 110 96 96 66
 66 66 66 31 31 31 31 3 3 3 3 203 119 119 119 119 119 119 95 95
 95 110 110 110 110 110 66 66 66 66 66 66 66 31 31 19 19 41 41 3
 119 119 119 119 119 119 220 95 95 95 110 110 110 110 110 66 66 66 66 66
 66 66 19 19 19 19 19 19 19 119 119 119 119 119 119 220 220 95 95 110
 110 110 110 110 66 66 66 66 66 66 66 164 19 19 19 19 19 19 119 119
 119 119 119 220 220 220 220 95 110 110 110 110 110 55 55 66 66 66 139 164
 164 164 19 19 19 19 202 119 119 119 119 119 220 220 220 220 150 150 150 150
 150 55 55 55 55 139 139 139 164 164 164 67 67 67 202 202 202 49 49 49
 49 220 220 220 220 150 150 150 150 150 55 55 55 55 139 139 139 164 164 164
 67 61 61 202 202 202 49 49 49 49 114 114 114 114 150 150 150 150 150 55
 55 55 55 139 139 139 164 164 164 61 61 61 61 61 202 49 49 49 49 114
 114 114 114 233 233 233 233 233 233 55 55 55 103 139 139 164 164 61 61 61
 61 61 61 61 49 49 49 49 114 114 114 114 233 233 233 233 233 233 233 55
 103 103 103 139 164 164 61 61 61 61 61 61 61 49 49 49 114 114 114 42
 42 42 233 233 233 233 233 233 207 207 207 207 207 207 235 235 235 61 61 61
 61 169 169 49 49 114 114 42 42 42 42 42 233 233 233 233 233 207 207 207
 207 207 207 235 235 235 235 61 61 121 121 121 121 186 186 42 42 42 42 42
 42 42 42 233 233 207 207 207 207 207 207 207 235 235 235 235 235 121 121 121
 121 121 186 186 213 213 42 42 42 42 42 42 42 233 207 207 207 207 207 207
 174 174 235 235 235 121 121 121 121 121 121 186 186 213 213 213 42 42 42 42
 42 42 46 46 46 207 207 207 174 174 174 174 174 121 121 121 121 121 121 121
 186 213 213 213 213 213 76 76 76 42 46 46 46 46 46 207 174 174 174 174
 174 174 174 121 121 121 121 121 121 186 213 213 213 213 213 76 76 76 76 46
 46 46 46 46 46 174 174 174 174 174 174 174 121 121 121 121 121 121 186 213
 213 213 213 213 213 76 76 76 46 46 46 46 46 46 174 174 174 174 174 174
 174 35 35 35 35 35 35 213 213 213 213 213 213 213 34 76 187 46 46 46
 46 46 46 174 174 174 174 174 174 174 35 35 35 35 35 70 70 70 70 7
 7 7 34 34 34 34 226 226 226 226 226 226 174 174 174 174 174 174 174 35
 35 35 35 70 70 70 70 70 7 7 7 34 34 34 34 226 226 226 226 226
 226 226 72 72 72 88 88 88 88 88 229 229 229 70 70 70 70 70 7 7
 34 34 34 154 154 226 226 226 226 226 226 72 72 72 72 88 88 88 88 229
 229 229 70 70 70 70 70 70 34 34 34 34 154 154 154 226 226 226 226 226
 72 72 72 72 88 88 88 88 229 229 229 70 70 70 70 70 89 34 34 34
 154 154 154 154 226 226 226 226 60 72 72 72 72 72 88 88 88 229 229 85
 70 70 70 70 89 89 89 89 154 154 154 154 181 185 185 185 60 60 60 72
 72 72 72 88 88 88 85 85 85 85 85 70 89 89 89 89 89 154 154 154
 154 181 185 185 185 60 60 60 60 72 72 3 3 3 3 85 85 85 85 85
 85 89 89 132 132 132 132 154 154 101 185 185 185 185 60 60 60 60 31 31
 3 3 3 3 203 203 85 85 85 85 132 132 132 132 132 101 101 101 101 96
 96 96 96 60 60 60 31 31 31 3 3 3 3 203 203 136 136 136 136 119
 132 132 132 95 95 110 43 96 96 96 96 96 96 168 31 31 31 31 3 3
 3 3 203 203 136 136 136 136 119 95 95 95 95 95 110 110 110 96 96 96
 96 96 66 66 31 113 31 3 3 3 3 203 136 136 136 136 119 119 95 95
 95 95 95 110 110 110 110 96 96 96 66 66 66 113 113 19 19 19 19 19
 203 136 119 119 119 119 119 95 95 95 95 95 110 110 110 110 96 96 66 66
 66 66 66 19 19 19 19 19 19 19 119 119 119 119 119 119 95 95 95 95
 95 110 110 110 110 66 66 66 66 66 66 164 19 19 19 19 19 19 19 119
 119 119 119 119 220 220 95 95 95 95 110 110 110 110 55 55 55 66 164 164
 164 164 67 19 19 19 19 30 30 30 119 119 119 114 114 114 114 95 150 150
 150 150 55 55 55 55 55 164 164 164 164 67 67 67 67 67 30 30 49 49
 49 49 114 114 114 114 150 150 150 150 150 55 55 55 55 55 164 164 164 164
 67 67 67 67 67 61 49 49 49 49 49 114 114 114 114 114 150 150 150 150
 150 55 55 55 55 164 164 164 164 67 67 61 61 61 61 61 49 49 49 114
 114 114 114 114 114 150 150 150 150 150 55 55 55 55 164 164 164 164 211 61
 61 61 61 61 61 147 49 49 114 114 114 114 114 233 233 233 233 233 233 233
 55 55 207 164 164 164 211 211 61 61 61 61 61 61 147 147 114 114 114 114
 114 114 42 42 233 233 233 233 233 207 207 207 207 207 211 211 211 211 61 61
 61 61 61 147 147 114 114 114 114 114 42 42 42 42 233 233 233 233 207 207
 207 207 207 235 235 235 235 235 61 61 121 121 121 121 114 114 114 114 42 42
 42 42 42 42 233 233 207 207 207 207 207 207 207 235 235 235 235 235 121 121
 121 121 121 121 213 213 138 138 138 42 42 42 42 233 233 207 207 207 207 207
 174 174 174 235 235 235 121 121 121 121 121 121 121 213 213 213 213 138 138 42
 42 42 42 46 46 46 207 207 207 174 174 174 174 241 241 121 121 121 121 121
 121 121 213 213 213 213 213 138 138 42 42 46 46 46 46 46 207 174 174 174
 174 174 174 174 121 121 121 121 121 121 121 213 213 213 213 213 138 138 76 187
 46 46 46 46 46 128 128 174 174 174 174 174 174 121 121 121 121 121 121 213
 213 213 213 213 213 213 76 76 187 46 46 46 46 46 46 174 174 174 174 174
 174 174 35 35 35 35 35 35 213 213 7 7 7 7 7 34 34 187 187 145
 46 46 46 174 174 174 174 174 174 174 174 35 35 35 35 35 70 70 7 7
 7 7 7 34 34 34 187 226 226 226 226 226 226 174 174 174 174 174 174 88
 88 35 35 35 35 70 70 70 7 7 7 7 34 34 34 34 187 226 226 226
 226 226 105 105 72 72 88 88 88 88 88 88 35 229 70 70 70 70 7 7
 7 34 34 34 154 154 226 226 226 226 226 226 72 72 72 72 88 88 88 88
 88 229 229 70 70 70 70 70 89 34 34 34 34 13 13 181 181 226 226 226
 60 72 72 72 72 88 88 88 88 88 229 229 70 70 70 70 89 89 89 34
 34 13 13 13 181 181 181 226 60 60 60 72 72 72 88 88 88 88 88 85
 85 70 70 70 89 89 89 89 89 34 13 13 181 181 181 181 60 60 60 60
 60 72 72 88 88 88 88 85 85 85 85 85 70 89 89 89 89 89 34 13
 101 181 181 181 185 185 60 60 60 60 60 72 3 3 3 3 85 85 85 85
 85 85 89 89 132 132 132 132 101 101 101 181 181 185 60 60 60 60 60 60
 31 3 3 3 3 203 136 136 136 136 136 132 132 132 132 132 101 101 101 101
 96 96 96 96 60 60 60 60 60 31 3 3 3 3 203 136 136 136 136 136
 132 132 132 132 132 132 101 101 101 96 96 96 96 96 60 60 113 113 113 3
 3 3 3 203 136 136 136 136 136 59 95 95 95 95 95 110 110 110 96 96
 96 96 96 96 113 113 113 113 19 19 3 3 136 136 136 136 136 136 59 95
 95 95 95 95 110 110 110 96 96 96 96 96 96 113 113 113 19 19 19 19
 19 19 136 136 136 119 119 59 95 95 95 95 95 110 110 110 110 96 96 96
 96 66 66 113 19 19 19 19 19 19 19 19 136 119 119 119 59 95 95 95
 95 95 110 110 110 110 96 66 66 66 66 164 19 19 19 19 19 19 19 19
 30 30 119 119 119 114 114 95 95 95 95 110 110 110 110 55 55 55 55 164
 164 164 67 67 19 19 19 19 30 30 30 30 30 119 114 114 114 114 95 150
 150 150 150 55 55 55 55 55 164 164 164 164 67 67 67 67 67 30 30 30
 30 49 114 114 114 114 114 114 150 150 150 150 150 55 55 55 55 164 164 164
 164 67 67 67 67 67 30 30 30 30 49 114 114 114 114 114 114 150 150 150
 150 150 55 55 55 55 164 164 164 164 67 67 67 67 61 61 30 147 147 114
 114 114 114 114 114 114 150 150 150 150 150 55 55 55 55 164 164 164 164 211
 211 61 61 61 61 147 147 147 114 114 114 114 114 114 114 233 233 233 233 233
 55 55 55 55 4 164 164 211 211 211 211 61 61 61 147 147 147 114 114 114
 114 114 114 114 42 233 233 233 233 233 207 207 207 4 4 211 211 211 211 211
 61 61 61 61 147 147 114 114 114 114 114 114 42 42 42 233 233 233 233 207
 207 207 207 4 211 211 211 211 211 211 121 121 121 121 121 114 114 114 138 138
 138 138 42 42 42 233 233 207 207 207 207 207 207 235 235 235 235 235 235 121
 121 121 121 121 121 200 138 138 138 138 138 138 42 42 233 104 104 207 207 207
 207 174 174 174 241 235 241 121 121 121 121 121 121 121 200 213 213 138 138 138
 138 42 42 104 104 104 104 207 207 128 128 174 174 241 241 241 121 121 121 121
 121 121 121 213 213 213 213 138 138 138 138 187 145 46 46 104 46 128 128 128
 174 174 174 241 241 121 121 121 121 121 121 121 213 213 213 213 213 138 138 187
 187 145 145 46 46 46 128 128 128 174 174 174 174 174 121 121 121 121 121 121
 213 213 7 213 213 213 138 187 187 187 145 145 145 46 46 128 128 128 174 174
 174 174 174 35 35 35 35 35 35 7 7 7 7 7 7 7 34 187 187 187
 145 145 145 46 128 128 128 174 174 174 174 174 35 35 35 35 35 35 7 7
 7 7 7 7 7 34 34 187 187 145 145 226 226 128 128 174 174 174 174 174
 88 88 35 35 35 35 70 7 7 7 7 7 7 34 34 34 187 187 145 145
 145 145 105 105 105 105 72 88 88 88 88 88 88 16 16 16 16 70 7 7
 7 7 34 34 161 161 161 161 145 145 226 45 45 45 72 72 88 88 88 88
 88 88 16 16 16 16 70 70 89 89 89 34 34 13 13 13 181 181 181 181
 45 60 72 72 72 72 88 88 88 88 88 16 16 16 16 70 89 89 89 89
 89 13 13 13 13 181 181 181 181 60 60 60 60 72 72 88 88 88 88 88
 16 16 16 16 70 89 89 89 89 89 13 13 13 181 181 181 181 181 60 60
 60 60 60 72 88 88 88 88 136 136 136 136 136 136 89 89 89 89 89 101
 101 101 181 181 181 181 60 60 60 60 60 60 72 3 3 3 3 136 136 136
 136 136 136 89 89 89 132 132 101 101 101 101 181 181 96 60 60 60 60 60
 60 60 3 3 3 3 136 136 136 136 136 136 132 132 132 132 132 101 101 101
 101 101 96 96 96 96 60 60 60 113 113 3 3 3 3 136 136 136 136 136
 136 132 132 132 132 132 101 101 101 101 96 96 96 96 96 15 15 113 113 113
 3 3 3 3 136 136 136 136 136 136 59 59 95 95 95 95 95 101 101 96
 96 96 96 96 96 15 113 113 113 19 19 19 19 136 136 136 136 136 136 59
 59 95 95 95 95 95 110 110 96 96 96 96 96 96 113 113 113 19 19 19
 19 19 19 136 136 136 136 59 59 59 95 95 95 95 95 110 110 96 96 96
 96 96 96 113 113 19 19 19 19 19 19 19 136 136 136 136 59 59 59 95
 95 95 95 95 221 110 110 98 98 98 98 164 164 19 19 19 19 19 19 19
 19 30 30 30 30 59 59 59 95 95 95 95 221 221 221 221 55 55 55 29