# vtk DataFile Version 2.0
Data set from ImportExport Version 6.5.171.b0b162591
ASCII

DATASET RECTILINEAR_GRID
DIMENSIONS 30 30 30
X_COORDINATES 30 float
-1.250000 1.250000 3.750000 6.250000 8.750000 11.250000 13.750000 16.250000 18.750000 21.250000 23.750000 26.250000 28.750000 31.250000 33.750000 36.250000 38.750000 41.250000 43.750000 46.250000 48.750000 
51.250000 53.750000 56.250000 58.750000 61.250000 63.750000 66.250000 68.750000 71.250000 
Y_COORDINATES 30 float
-1.250000 1.250000 3.750000 6.250000 8.750000 11.250000 13.750000 16.250000 18.750000 21.250000 23.750000 26.250000 28.750000 31.250000 33.750000 36.250000 38.750000 41.250000 43.750000 46.250000 48.750000 
51.250000 53.750000 56.250000 58.750000 61.250000 63.750000 66.250000 68.750000 71.250000 
Z_COORDINATES 30 float
-1.250000 1.250000 3.750000 6.250000 8.750000 11.250000 13.750000 16.250000 18.750000 21.250000 23.750000 26.250000 28.750000 31.250000 33.750000 36.250000 38.750000 41.250000 43.750000 46.250000 48.750000 
51.250000 53.750000 56.250000 58.750000 61.250000 63.750000 66.250000 68.750000 71.250000 
CELL_DATA 24389
SCALARS FeatureIds int 1
LOOKUP_TABLE default
 193 193 193 193 193 120 120 120 120 120 120 9 9 9 121 121 121 121 46 128
 128 128 128 128 128 57 57 57 57 193 193 193 193 120 120 120 120 120 120 120
 9 9 121 121 121 121 121 46 128 128 128 128 128 128 57 57 57 57 193 193
 193 211 211 120 120 120 120 150 150 150 121 121 121 121 121 121 121 128 128 128
 128 128 128 141 141 141 141 158 158 158 211 211 211 45 45 45 150 150 150 121
 121 121 121 121 121 84 84 84 128 128 128 128 141 141 141 141 158 158 158 211
 211 211 45 45 45 45 150 150 121 121 121 121 121 84 84 84 84 84 128 128
 128 141 141 22 22 158 158 158 211 211 211 45 45 45 45 45 45 7 7 7
 7 7 84 84 84 84 84 84 84 22 22 22 22 22 158 158 158 158 211 211
 45 45 45 45 45 45 18 7 7 7 7 7 84 84 84 84 84 84 60 60
 60 22 158 158 158 158 158 211 211 45 45 45 45 45 18 18 7 7 7 7
 7 7 84 84 16 16 16 60 60 60 60 158 158 158 158 158 211 211 45 45
 45 45 18 18 18 18 18 7 7 7 7 16 16 16 16 16 16 60 60 60
 60 238 238 238 238 20 20 20 20 45 45 18 18 18 18 18 18 7 228 228
 16 16 16 16 16 16 60 60 60 60 238 238 238 238 20 20 20 20 20 20
 18 18 18 18 18 18 228 228 228 16 16 16 16 16 16 16 60 60 238 238
 238 238 20 20 20 20 20 20 20 18 18 18 18 18 228 228 228 228 16 16
 16 16 16 16 16 60 60 238 238 238 20 20 20 20 20 20 20 180 180 180
 235 235 235 228 228 228 228 16 16 16 16 16 16 16 16 60 238 190 190 190
 20 20 20 20 20 20 180 180 180 235 235 235 228 228 228 228 16 16 16 16
 16 16 215 215 190 190 190 190 190 190 20 20 20 20 180 180 180 180 180 235
 235 235 228 228 228 16 16 16 16 16 237 215 215 190 190 190 190 190 190 240
 240 240 240 180 180 180 180 180 180 235 235 161 161 161 16 130 130 237 237 237
 237 215 190 190 190 190 190 240 240 240 240 240 240 180 180 180 180 180 180 180
 161 161 161 130 130 130 237 237 237 237 237 190 190 190 190 190 240 240 240 240
 240 38 38 180 180 180 180 180 8 8 161 161 161 130 237 237 237 237 237 237
 237 190 190 105 105 105 105 105 105 105 105 38 180 180 180 180 8 8 8 8
 8 8 8 237 237 237 237 237 237 33 33 105 105 105 105 105 105 105 105 105
 105 43 43 43 43 8 8 8 8 8 8 8 237 237 237 237 237 33 33 33
 167 167 166 166 105 105 105 12 12 12 43 43 43 43 8 8 8 8 8 8
 90 90 83 83 83 83 33 33 33 167 167 166 166 167 167 12 12 12 12 43
 43 43 43 72 72 72 194 194 90 90 90 90 83 83 83 83 33 33 167 167
 167 167 167 167 12 12 12 187 187 187 187 187 72 72 194 194 194 90 90 90
 90 90 83 83 33 33 33 167 167 167 167 167 167 12 12 12 187 187 187 187
 187 194 194 194 194 194 90 90 90 90 90 90 90 33 33 33 193 193 193 167
 167 167 66 66 187 187 187 187 187 187 194 194 194 194 194 90 90 90 90 90
 90 90 57 57 57 193 193 193 193 193 66 66 66 187 187 187 187 9 9 9
 194 194 194 194 90 90 90 90 90 90 57 57 57 57 193 193 193 193 193 66
 66 66 66 187 187 9 9 9 9 9 46 46 46 200 200 200 200 200 200 57
 57 57 57 193 193 193 193 193 66 66 66 66 66 9 9 9 9 9 46 46
 46 46 200 200 200 200 200 200 57 57 57 57 193 193 193 193 193 66 66 66
 66 66 9 9 9 9 9 121 46 46 46 46 200 200 200 200 200 57 57 57
 57 193 193 193 193 193 120 120 120 120 120 120 9 9 9 9 121 46 46 46
 128 200 200 200 200 57 57 57 57 57 193 193 193 193 120 120 120 120 120 120
 120 9 9 121 121 121 121 121 46 128 128 128 128 128 128 57 141 141 193 193
 193 193 193 120 120 120 120 120 120 150 150 125 121 121 121 121 121 121 128 128
 128 128 128 128 141 141 141 141 22 158 211 211 211 211 45 45 45 45 45 45
 125 125 121 121 121 121 84 84 84 128 128 128 141 141 141 141 141 22 158 211
 211 211 211 45 45 45 45 45 45 125 125 7 7 7 84 84 84 84 84 128
 128 141 141 141 22 22 158 158 158 211 211 211 45 45 45 45 45 45 7 7
 7 7 7 7 84 84 84 84 84 84 22 22 22 22 22 158 158 158 211 211
 211 45 45 45 45 45 18 18 7 7 7 7 7 7 84 84 84 16 16 22
 22 22 22 22 158 158 158 158 211 211 45 45 45 45 45 18 18 18 7 7
 7 7 7 7 16 16 16 16 16 60 60 60 60 238 238 238 238 211 211 45
 45 45 45 18 18 18 18 18 7 7 7 7 16 16 16 16 16 16 60 60
 60 60 238 238 238 238 238 20 20 45 45 45 18 18 18 18 18 18 7 228
 228 16 16 16 16 16 16 60 60 60 60 238 238 238 238 20 20 20 20 20
 18 18 18 18 18 18 18 228 228 228 16 16 16 16 16 16 60 60 60 238
 238 238 238 20 20 20 20 20 20 18 18 18 18 18 18 228 228 228 228 16
 16 16 16 16 16 16 60 60 238 238 238 65 20 20 20 20 20 20 18 18
 18 18 18 18 228 228 228 228 16 16 16 16 16 16 215 215 60 238 190 190
 190 219 219 219 219 219 219 180 180 180 235 235 235 228 228 228 228 16 16 16
 16 16 215 215 215 215 190 190 190 190 190 219 219 219 219 180 180 180 180 180
 235 235 235 228 228 228 16 16 130 130 215 215 215 215 215 190 190 190 190 190
 219 219 219 219 38 38 38 180 180 180 235 178 178 178 178 130 130 130 130 237
 215 215 215 215 190 190 190 190 240 240 240 240 240 38 38 38 38 180 180 180
 178 178 178 178 130 130 130 237 237 237 215 215 215 190 190 190 190 240 240 240
 240 240 38 38 38 38 180 180 178 178 178 8 8 8 130 130 237 237 237 237
 215 215 190 190 190 105 105 240 240 240 105 38 38 38 38 38 38 8 8 8
 8 8 8 130 237 237 237 237 237 237 33 33 242 242 105 105 105 105 105 105
 105 38 38 38 38 8 8 8 8 8 8 8 8 237 237 237 237 237 33 33
 33 242 242 166 166 105 105 105 105 105 38 43 43 43 43 8 8 8 8 8
 8 90 90 93 93 93 93 33 33 33 242 242 166 166 166 166 105 105 12 12
 43 43 43 43 194 194 194 194 194 90 90 90 90 93 93 93 33 33 33 242
 242 166 166 166 166 12 12 12 187 187 187 187 187 194 194 194 194 194 90 90
 90 90 90 93 93 33 33 33 242 242 166 166 166 167 12 12 187 187 187 187
 187 187 194 194 194 194 194 90 90 90 90 90 90 90 33 33 33 193 193 193
 193 193 167 66 66 187 187 187 187 187 187 194 194 194 194 194 90 90 90 90
 90 90 90 57 57 57 193 193 193 193 193 66 66 66 66 187 187 187 9 9
 9 194 194 194 194 90 90 90 90 90 90 57 57 57 57 193 193 193 193 193
 66 66 66 66 66 187 9 9 9 9 46 46 46 46 200 200 200 200 200 200
 57 57 57 57 193 193 193 193 193 66 66 66 66 66 9 9 9 9 9 46
 46 46 46 200 200 200 200 200 200 57 57 57 57 193 193 193 193 193 66 66
 66 66 66 9 9 9 9 9 46 46 46 46 200 200 200 200 200 200 57 57
 57 57 193 193 193 193 193 120 120 120 120 120 120 9 9 9 9 233 233 233
 233 233 200 200 200 200 57 57 57 57 193 193 193 193 193 120 120 120 120 120
 120 120 96 96 96 96 121 121 233 233 233 200 200 200 200 133 141 141 141 141
 141 193 193 193 120 120 120 120 120 120 120 125 125 125 125 121 121 121 233 128
 128 128 128 128 141 141 141 141 141 141 141 211 211 211 211 45 45 45 45 45
 125 125 125 125 125 121 121 84 84 84 54 128 141 141 141 141 141 141 22 22
 211 211 211 211 45 45 45 45 45 45 125 125 125 125 7 7 84 84 54 54
 54 141 141 141 141 22 22 22 158 158 211 211 211 45 45 45 45 45 45 125
 7 7 7 7 7 84 84 54 54 54 54 22 22 22 22 22 22 158 158 211
 211 211 45 45 45 45 45 45 18 7 7 7 7 7 7 84 54 54 54 54
 22 22 22 22 22 158 158 158 211 211 211 45 45 45 45 45 18 18 7 7
 7 7 7 7 7 16 16 16 16 186 60 60 60 60 238 238 238 238 211 211
 45 45 45 45 18 18 18 18 7 7 7 7 7 16 16 16 16 16 16 60
 60 60 60 238 238 238 238 238 20 45 45 45 45 18 18 18 18 18 7 7
 228 228 16 16 16 16 16 16 60 60 60 60 238 238 238 238 20 20 20 20
 45 18 18 18 18 18 18 18 228 228 228 16 16 16 16 16 16 60 60 60
 238 238 238 238 238 20 20 20 20 20 18 18 18 18 18 18 228 228 228 228
 16 16 16 16 16 16 16 60 60 238 65 65 65 65 20 20 20 30 30 18
 18 18 18 18 18 228 228 228 228 16 16 16 16 16 16 215 215 230 65 65
 65 65 219 219 219 219 219 219 38 53 53 53 53 53 228 228 228 228 16 16
 16 16 16 215 215 215 215 190 190 190 190 219 219 219 219 219 219 38 38 38
 53 53 53 53 228 228 228 16 130 130 130 215 215 215 215 215 190 190 190 190
 219 219 219 219 219 38 38 38 38 180 53 53 178 178 178 178 130 130 130 130
 130 215 215 215 215 190 190 190 190 219 219 219 219 38 38 38 38 38 38 53
 178 178 178 178 178 130 130 130 130 237 215 215 215 215 190 190 190 190 240 240
 240 240 38 38 38 38 38 38 38 178 178 178 178 178 178 130 130 237 237 237
 215 215 215 190 242 242 242 240 240 240 105 38 38 38 38 38 38 38 178 178
 178 178 178 8 130 237 237 237 237 237 215 33 33 242 242 242 105 105 105 105
 105 38 38 38 38 38 8 8 8 8 8 8 8 8 237 237 237 237 237 33
 33 33 242 242 242 166 105 105 105 105 38 38 38 38 43 15 8 8 8 8
 8 8 90 93 93 93 93 93 33 33 33 242 242 242 166 166 105 105 105 12
 38 43 43 15 15 15 194 194 194 194 90 90 90 93 93 93 93 33 33 33
 242 242 242 166 166 166 105 105 12 187 187 187 187 15 194 194 194 194 194 90
 90 90 90 93 93 93 33 33 33 242 242 242 166 166 166 105 66 187 187 187
 187 187 15 194 194 194 194 194 90 90 90 90 90 93 93 33 33 33 193 193
 193 193 193 66 66 66 187 187 187 187 187 9 194 194 194 194 194 90 90 90
 90 90 90 90 33 33 33 193 193 193 193 193 66 66 66 66 187 187 187 9
 9 9 194 194 194 194 90 90 90 90 90 90 57 57 57 57 193 193 193 193
 193 66 66 66 66 66 187 9 9 9 9 233 233 233 233 233 200 200 200 200
 200 57 57 57 57 193 193 193 193 193 66 66 66 66 66 9 9 9 9 9
 233 233 233 233 233 200 200 200 200 200 57 57 57 57 193 193 193 193 193 66
 66 66 66 66 9 9 9 9 9 233 233 233 233 233 200 200 200 200 200 57
 57 57 57 193 193 193 193 193 207 207 207 207 207 101 96 96 96 96 233 233
 233 233 233 200 200 200 133 133 133 57 57 193 193 193 193 193 193 207 207 207
 207 207 96 96 96 96 96 96 233 233 233 233 200 200 200 133 133 133 141 141
 141 141 193 193 193 225 225 225 225 225 225 101 96 125 125 125 125 121 233 233
 233 54 54 133 133 133 141 141 141 141 141 141 193 211 211 45 225 225 225 45
 45 125 125 125 125 125 125 61 61 54 54 54 54 133 133 141 141 141 141 22
 22 211 211 211 211 45 45 45 45 45 125 125 125 125 125 7 7 54 54 54
 54 54 54 141 141 22 22 22 22 22 211 211 211 211 45 45 45 45 45 45
 125 125 7 7 7 7 54 54 54 54 54 54 186 22 22 22 22 22 158 158
 211 211 211 45 45 45 45 45 45 18 7 7 7 7 7 7 54 54 54 54
 186 186 22 22 22 22 22 158 158 211 211 211 45 45 45 45 45 18 18 7
 7 7 7 7 7 54 54 54 54 186 186 186 22 22 22 60 238 238 238 211
 211 45 45 45 45 18 18 18 18 7 7 7 7 7 16 16 16 16 16 186
 186 60 60 60 238 238 238 238 107 107 107 45 45 45 18 18 18 18 18 7
 7 7 228 16 16 16 16 16 230 230 60 60 60 238 238 238 238 107 30 30
 30 30 28 18 18 18 18 18 18 228 228 228 16 174 174 174 16 230 230 230
 230 238 65 65 65 65 30 30 30 30 30 28 28 18 18 18 18 228 228 228
 228 16 174 174 174 16 230 230 230 230 65 65 65 65 65 30 30 30 30 30
 30 53 53 53 53 53 53 228 228 228 16 174 174 174 16 230 230 230 230 65
 65 65 65 65 219 219 219 30 30 38 53 53 53 53 53 53 228 228 228 16
 16 16 16 16 215 215 215 188 65 65 65 65 219 219 219 219 219 38 38 38
 53 53 53 53 53 53 178 178 16 130 130 130 215 215 215 215 215 65 65 65
 65 219 219 219 219 219 38 38 38 38 53 53 53 53 178 178 178 130 130 130
 130 215 215 215 215 215 65 190 190 190 219 219 219 219 38 38 38 38 38 38
 53 53 178 178 178 178 178 130 130 130 130 215 215 215 215 65 190 190 190 219
 219 219 219 38 38 38 38 38 38 38 178 178 178 178 178 178 130 130 130 237
 215 215 215 215 215 242 242 242 240 240 105 105 38 38 38 38 38 38 38 178
 178 178 178 178 178 5 5 237 237 237 215 215 33 33 242 242 242 242 105 105
 105 105 38 38 38 38 38 15 178 178 178 178 178 178 5 5 93 93 93 93
 33 33 33 242 242 242 242 105 105 105 105 38 38 38 38 15 15 15 8 8
 8 8 8 5 93 93 93 93 93 33 33 33 242 242 242 242 105 105 105 105
 38 38 38 15 15 15 15 15 171 171 171 90 90 93 93 93 93 93 33 33
 33 242 242 242 242 166 105 105 105 48 38 187 187 15 15 15 15 171 171 171
 90 90 90 93 93 93 93 33 33 33 242 242 242 242 166 105 48 48 48 187
 187 187 15 15 15 171 171 171 171 90 90 90 90 93 93 93 33 33 33 242
 242 242 242 193 58 66 66 187 187 187 187 15 15 15 171 171 171 171 90 90
 90 90 90 90 93 33 33 33 193 193 193 193 193 66 66 66 66 132 187 187
 9 9 9 233 233 233 233 233 90 90 90 90 90 57 57 57 57 193 193 193
 193 193 66 66 66 66 66 132 9 9 9 9 233 233 233 233 233 200 200 200
 200 200 57 57 57 57 193 193 193 193 193 66 66 66 66 66 9 9 9 9
 9 233 233 233 233 233 200 200 200 200 57 57 57 57 57 193 193 193 193 193
 66 66 66 66 66 9 9 9 9 9 233 233 233 233 233 200 200 200 200 57
 57 57 57 193 218 218 218 193 193 207 207 207 207 207 101 96 96 96 96 96
 233 233 233 233 200 200 133 133 133 133 133 133 193 193 193 193 193 207 207 207
 207 207 207 101 96 96 96 96 96 233 233 233 61 61 133 133 133 133 133 133
 141 141 141 141 193 225 225 225 225 225 225 225 101 96 96 96 96 96 96 61
 61 61 54 54 133 133 133 133 141 141 141 141 141 141 225 225 225 225 225 225
 225 101 96 125 125 125 96 96 61 61 54 54 54 54 133 133 141 141 141 141
 22 22 22 211 211 225 225 225 225 225 225 125 125 125 125 125 125 61 54 54
 54 54 54 54 133 22 22 22 22 22 22 211 211 211 211 225 225 225 225 225
 125 125 125 125 125 7 54 54 54 54 54 54 54 186 22 22 22 22 22 22
 158 211 211 211 45 45 45 45 45 45 35 35 35 35 7 7 54 54 54 54
 54 186 186 186 22 22 22 22 22 158 107 107 107 45 45 45 45 45 18 35
 35 35 35 7 7 7 54 54 54 54 186 186 186 186 22 22 60 238 238 107
 107 107 107 107 45 45 18 18 35 35 35 35 35 7 7 1 1 1 16 186
 186 186 186 186 60 238 238 238 107 107 107 107 107 107 28 28 28 35 35 35
 35 35 7 228 1 1 1 16 16 230 230 230 230 60 65 65 65 65 107 107
 30 30 30 28 28 28 28 35 35 35 228 228 228 174 174 174 174 230 230 230
 230 230 230 65 65 65 65 30 30 30 30 30 28 28 28 53 53 53 53 228
 228 228 174 174 174 174 230 230 230 230 230 65 65 65 65 65 30 30 30 30
 30 30 28 53 53 53 53 53 228 228 228 174 174 174 174 230 230 230 230 188
 65 65 65 65 65 30 30 30 30 30 30 53 53 53 53 53 53 53 214 214
 16 174 174 174 230 230 230 188 188 65 65 65 65 65 219 219 219 30 30 38
 53 53 53 53 53 53 53 178 178 16 130 130 130 215 215 215 215 188 65 65
 65 65 219 219 219 219 219 38 38 38 38 53 53 53 53 178 178 178 178 130
 130 130 215 215 215 215 215 65 65 65 65 219 219 219 219 38 38 38 38 38
 53 53 53 178 178 178 178 178 130 130 130 215 215 215 215 215 65 65 65 65
 219 219 219 219 38 38 38 38 38 38 38 178 178 178 178 178 178 136 136 136
 215 215 215 215 215 215 242 242 242 242 240 105 105 38 38 38 38 38 38 38
 178 178 178 178 178 178 5 5 5 5 215 215 215 215 33 242 242 242 242 105
 105 105 38 38 38 38 38 38 15 15 178 178 178 178 5 5 5 5 93 93
 93 33 33 33 242 242 242 242 105 105 105 105 38 38 38 38 15 15 15 15
 15 8 8 5 5 5 93 93 93 93 33 33 33 242 242 242 242 242 105 48
 48 48 38 38 15 15 15 15 15 15 171 171 5 5 93 93 93 93 93 33
 33 33 242 242 242 242 242 105 48 48 48 48 15 15 15 15 15 15 171 171
 171 171 90 93 93 93 93 93 33 33 33 242 242 242 242 242 48 48 48 48
 48 132 15 15 15 15 15 171 171 171 171 90 90 93 93 93 93 33 33 33
 242 242 242 242 58 58 58 58 58 132 132 132 15 15 15 15 171 171 171 171
 90 90 90 90 93 93 33 33 33 218 218 218 218 58 58 58 58 58 132 132
 132 132 15 15 233 233 233 233 233 90 90 90 90 90 57 57 57 57 218 218
 218 218 58 58 58 58 66 132 132 132 132 9 9 233 233 233 233 233 233 200
 200 200 133 57 57 57 218 218 218 218 218 218 58 58 66 66 66 74 74 9
 9 9 233 233 233 233 233 200 200 200 200 133 57 57 57 218 218 218 218 218
 218 58 66 207 207 101 101 96 96 96 96 233 233 233 233 233 200 200 200 133
 133 133 133 57 218 218 218 218 218 207 207 207 207 207 101 101 101 96 96 96
 96 61 61 61 61 61 196 196 196 133 133 133 133 133 218 218 218 218 207 207
 207 207 207 101 101 101 96 96 96 96 61 61 61 61 61 196 196 196 133 133
 133 133 141 141 141 218 225 225 225 225 225 225 101 101 101 96 96 96 96 61
 61 61 61 54 196 196 196 133 133 133 141 141 141 141 141 225 225 225 225 225
 225 225 101 101 96 96 96 96 61 61 61 54 54 54 54 196 133 133 141 141
 141 22 22 73 73 225 225 225 225 225 225 101 101 125 125 125 125 61 61 61
 54 54 54 54 54 145 145 22 22 22 22 22 73 73 73 225 225 225 225 225
 101 101 125 35 35 35 35 61 54 54 54 54 54 54 186 186 22 22 22 22
 22 114 107 107 107 107 45 45 45 45 35 35 35 35 35 35 35 54 54 54
 54 54 186 186 186 186 22 22 22 114 107 107 107 107 107 107 107 45 35 35
 35 35 35 35 35 35 54 54 54 54 54 186 186 186 186 186 22 60 107 107
 107 107 107 107 107 107 28 28 35 35 35 35 35 35 35 1 1 1 1 1
 186 186 186 186 186 186 65 65 107 107 107 107 107 107 107 28 28 28 205 35
 35 35 35 35 1 1 1 1 1 1 230 230 230 230 230 65 65 65 107 107
 107 107 30 30 28 28 28 28 35 35 35 35 35 1 1 1 1 1 230 230
 230 230 230 230 65 65 65 65 30 30 30 30 30 28 28 28 28 53 53 53
 214 214 214 1 1 1 1 230 230 230 230 230 65 65 65 65 65 30 30 30
 30 30 28 28 28 53 53 53 53 214 214 214 214 95 95 95 230 230 230 230
 188 65 65 65 65 65 30 30 30 30 30 28 28 53 53 53 53 53 214 214
 214 214 95 95 95 230 230 230 188 188 188 65 65 65 65 30 30 30 30 30
 30 28 53 53 53 53 53 214 214 214 214 95 95 95 215 215 215 188 188 65
 65 65 65 65 219 219 219 30 38 38 38 53 53 53 53 53 178 178 178 131
 136 136 136 136 215 215 215 188 65 65 65 65 65 219 219 219 38 38 38 38
 38 53 53 53 178 178 178 178 131 136 136 136 136 215 215 215 215 65 65 65
 65 219 219 219 219 38 38 38 38 38 38 53 178 178 178 178 131 131 136 136
 136 136 215 215 215 215 215 242 242 242 242 219 219 219 38 38 38 38 38 38
 15 178 178 178 178 131 131 5 5 5 5 5 215 215 85 33 242 242 242 242
 105 105 48 48 38 38 38 38 15 15 15 15 210 178 131 5 5 5 5 5
 93 93 33 33 33 242 242 242 242 242 48 48 48 48 48 38 15 15 15 15
 15 210 210 5 5 5 5 5 93 93 93 33 33 242 242 242 242 242 242 48
 48 48 48 48 48 15 15 15 15 15 15 15 15 5 5 5 93 93 93 93
 33 33 242 242 242 242 242 242 48 48 48 48 48 48 15 15 15 15 15 15
 15 171 171 5 93 93 93 93 93 33 33 242 242 242 242 242 199 48 48 48
 48 48 132 132 15 15 15 15 15 171 171 171 90 90 93 93 93 93 33 33
 242 242 242 242 242 58 58 58 58 58 132 132 132 132 15 15 15 15 171 171
 171 90 90 90 90 93 93 33 33 242 218 218 218 218 58 58 58 58 58 132
 132 132 132 132 15 15 233 233 233 233 90 106 90 90 88 97 97 97 218 218
 218 218 218 58 58 58 58 58 132 132 132 132 132 233 233 233 233 233 233 233
 106 106 196 97 97 97 97 218 218 218 218 218 58 58 58 58 58 132 74 74
 74 96 233 233 233 233 233 233 233 200 196 196 133 97 97 97 218 218 218 218
 218 58 58 58 207 207 101 101 101 96 96 96 233 233 233 233 233 233 196 196
 196 133 133 133 97 218 218 218 218 218 207 207 207 207 207 101 101 101 101 96
 96 61 61 61 61 61 61 196 196 196 196 133 133 97 97 218 218 218 218 207
 207 207 207 207 101 101 101 101 96 96 61 61 61 61 61 61 196 196 196 196
 133 133 133 97 141 218 218 73 225 225 225 225 225 101 101 101 101 96 96 61
 61 61 61 61 61 196 196 196 196 133 133 133 141 141 73 73 73 225 225 225
 225 225 225 101 101 101 96 96 61 61 61 61 61 54 54 196 196 196 133 133
 133 141 22 73 73 73 73 225 225 225 225 225 101 101 101 96 96 61 61 61
 61 54 54 54 54 145 145 145 145 145 22 114 114 73 73 73 225 225 225 225
 225 101 101 101 35 35 35 35 61 54 54 54 54 54 145 145 145 145 145 22
 114 114 114 107 107 107 107 107 225 225 101 101 35 35 35 35 35 49 54 54
 54 54 54 17 186 17 17 17 22 114 114 107 107 107 107 107 107 107 107 28
 205 205 35 35 35 35 49 1 1 1 1 1 186 186 186 17 17 17 114 107
 107 107 107 107 107 107 107 28 28 205 205 35 35 35 35 49 1 1 1 1
 1 1 186 186 17 17 17 65 107 107 107 107 107 107 107 107 28 28 28 205
 205 35 35 35 49 1 1 1 1 1 1 230 230 230 230 230 65 65 65 107
 107 107 107 107 107 28 28 28 28 205 205 205 205 49 1 1 1 1 1 1
 230 230 230 230 230 65 65 65 107 30 30 30 30 30 28 28 28 28 28 53
 53 214 214 214 1 1 1 1 230 230 230 230 230 65 65 65 65 65 30 30
 30 30 30 28 28 28 28 53 53 53 214 214 214 214 95 95 95 230 230 230
 230 188 65 65 65 65 65 30 30 30 30 30 28 28 28 53 53 53 53 214
 214 214 214 95 95 95 95 230 230 188 188 188 65 65 65 65 30 30 30 30
 30 28 28 53 53 53 53 53 214 214 214 214 95 95 95 95 215 215 188 188
 65 65 65 65 65 30 30 30 30 30 38 38 53 53 53 53 53 214 214 131
 131 136 136 136 136 215 215 188 188 65 65 65 65 65 219 219 219 38 38 38
 38 38 53 53 53 53 178 131 131 131 136 136 136 136 136 215 215 215 65 65
 65 65 65 219 219 219 38 38 38 38 38 38 53 53 178 178 131 131 131 136
 136 136 136 136 215 215 85 85 85 242 242 199 199 219 48 38 38 38 38 38
 15 210 210 210 131 131 131 131 136 136 136 136 136 85 85 85 85 242 242 242
 199 199 48 48 48 48 48 48 15 15 210 210 210 210 131 131 131 5 5 5
 136 136 85 85 85 85 242 242 242 199 199 48 48 48 48 48 48 15 15 15
 210 210 210 210 131 5 5 5 5 93 93 85 85 85 85 242 242 242 199 199
 48 48 48 48 48 48 15 15 15 15 210 210 210 210 5 5 5 5 93 93
 85 85 85 242 242 242 242 199 199 48 48 48 48 48 48 15 15 15 15 15
 15 210 210 5 5 5 93 93 93 93 33 33 242 242 242 199 199 199 48 48
 48 48 48 132 132 132 15 15 15 15 15 171 171 106 106 106 93 93 93 33
 33 242 242 242 199 199 58 58 58 58 58 132 132 132 132 132 15 15 15 15
 70 70 106 106 106 88 88 97 97 97 97 218 218 218 58 58 58 58 58 58
 132 132 132 132 132 132 15 15 233 70 70 106 106 106 88 88 97 97 97 97
 218 218 218 58 58 58 58 58 58 132 132 132 132 132 132 233 233 233 233 70
 106 106 106 88 97 97 97 97 97 218 218 218 58 58 58 58 58 58 132 74
 74 74 74 96 233 233 61 233 233 70 106 196 196 97 97 97 97 97 218 218
 218 218 58 58 58 207 207 101 101 101 101 96 96 61 61 61 61 61 70 196
 196 196 196 97 97 97 97 218 197 197 197 197 207 207 207 101 101 101 101 101
 101 96 61 61 61 61 61 117 196 196 196 196 196 97 97 97 218 197 197 197
 207 207 207 207 207 101 101 101 101 101 96 61 61 61 61 61 117 117 196 196
 196 196 133 133 97 134 197 73 73 73 225 225 225 225 101 101 101 101 101 96
 61 61 61 61 61 117 117 196 196 196 196 133 133 134 134 73 73 73 73 73
 225 225 225 101 101 101 101 101 96 61 61 61 61 61 54 54 196 196 196 145
 145 145 134 114 73 73 73 73 73 225 225 225 225 101 101 101 101 96 61 61
 61 61 54 54 54 54 145 145 145 145 145 145 114 114 73 73 73 73 225 225
 225 225 101 101 101 101 35 35 61 61 61 54 54 54 54 145 145 145 145 145
 145 114 114 114 73 73 73 107 107 225 225 101 205 205 35 35 35 49 49 49
 1 1 1 1 17 17 17 17 17 114 114 114 114 107 107 107 107 107 107 28
 28 205 205 205 205 35 49 49 49 1 1 1 1 17 17 17 17 17 114 114
 114 114 107 107 107 107 107 107 28 28 205 205 205 205 205 49 49 49 1 1
 1 1 1 17 17 17 17 114 114 114 107 107 107 56 107 107 107 28 28 28
 205 205 205 205 49 49 49 1 1 1 1 1 17 17 17 17 114 65 65 107
 107 107 107 107 107 107 28 28 28 28 205 205 205 49 49 49 1 1 1 1
 1 230 230 230 230 65 65 65 65 107 107 107 30 30 28 28 28 28 28 28
 205 205 214 214 214 1 1 1 1 230 230 230 230 230 65 65 65 65 65 30
 30 30 30 30 28 28 28 28 28 53 214 214 214 214 214 95 95 95 95 230
 230 230 188 65 65 65 65 65 30 30 30 30 30 28 28 28 28 53 53 214
 214 214 214 214 95 95 95 95 230 230 230 188 65 65 65 65 65 30 30 30
 30 159 159 159 28 53 53 53 214 214 214 214 214 95 95 95 95 230 230 188
 188 65 65 65 65 65 30 30 30 30 159 159 159 159 53 53 53 214 214 214
 131 131 136 136 136 136 136 100 188 188 65 65 65 65 65 30 30 30 30 159
 159 159 159 53 53 53 214 214 131 131 131 136 136 136 136 136 136 85 85 85
 85 85 199 199 199 199 219 38 159 159 159 159 53 53 210 143 143 131 131 131
 136 136 136 136 136 85 85 85 85 85 199 199 199 199 199 48 48 48 48 48
 48 15 210 210 143 143 143 131 131 136 136 136 136 136 85 85 85 85 85 199
 199 199 199 199 48 48 48 48 48 48 15 210 210 210 143 143 131 131 136 136
 136 136 136 85 85 85 85 85 199 199 199 199 199 48 48 48 48 48 15 15
 210 210 210 210 210 131 5 5 5 5 136 85 85 85 85 85 199 199 199 199
 199 199 48 48 48 48 48 15 15 15 210 210 210 210 210 5 5 5 5 93
 85 85 85 85 85 199 199 199 199 199 199 48 48 48 48 48 15 15 15 15
 210 210 210 210 70 106 106 106 88 85 85 85 85 85 199 199 199 199 199 199
 48 48 48 48 132 132 132 15 15 15 15 15 70 70 106 106 106 88 88 88
 85 85 85 97 199 199 199 199 58 58 58 58 132 132 132 132 132 15 15 15
 15 70 70 106 106 106 88 88 88 97 97 97 97 197 192 192 58 58 58 58
 58 132 132 132 132 132 132 15 15 70 70 70 106 106 106 88 88 97 97 97
 97 197 197 197 168 58 58 58 58 58 132 132 132 132 132 132 70 70 70 70
 70 106 106 106 88 88 97 97 97 97 197 197 197 168 58 58 58 58 58 132
 74 74 74 74 74 61 61 61 70 70 70 106 106 196 196 97 97 97 97 197
 197 197 168 58 58 58 58 101 101 101 74 101 101 96 61 61 61 61 70 70
 196 196 196 196 97 97 97 97 197 197 197 197 79 79 79 79 79 101 101 101
 101 101 101 61 61 61 61 61 117 117 196 196 196 196 97 97 97 134 197 197
 79 79 79 79 79 79 101 101 101 101 101 101 61 61 61 61 61 117 117 196
 196 196 196 134 134 134 134 134 73 73 79 79 79 79 79 101 101 101 101 101
 101 61 61 61 61 61 117 117 196 196 196 196 134 134 134 134 73 73 73 73
 73 79 79 79 101 101 101 101 101 101 61 61 61 61 61 117 117 196 196 196
 145 145 134 134 114 73 73 73 73 73 73 79 79 101 101 101 101 101 101 61
 61 61 61 61 54 54 54 145 145 145 145 146 146 114 114 73 73 73 73 73
 73 79 241 241 241 241 241 241 49 61 61 61 54 54 54 54 145 145 145 145
 145 146 114 114 114 73 73 73 107 107 107 241 241 241 205 205 205 49 49 49
 49 1 1 1 1 17 17 17 17 17 114 114 114 114 114 107 107 107 107 107
 107 28 205 205 205 205 49 49 49 49 1 1 1 1 17 17 17 17 17 114
 114 114 114 107 107 107 107 107 107 107 28 205 205 205 205 49 49 49 49 1
 1 1 1 1 17 17 17 17 114 114 114 114 107 107 107 107 107 107 28 28
 28 205 205 205 49 49 49 49 1 1 1 1 1 17 17 17 17 114 114 65
 107 107 107 107 107 107 107 28 28 28 28 205 205 49 49 49 49 1 1 1
 1 1 230 230 230 230 65 65 65 65 107 107 107 107 107 28 28 28 28 28
 28 205 49 49 49 49 1 1 1 1 1 230 230 230 113 65 65 65 65 65
 30 30 30 30 30 28 28 28 28 28 53 214 214 214 214 214 95 95 95 95
 230 230 113 113 113 65 65 65 65 30 30 30 30 159 159 28 28 28 28 53
 214 214 214 214 214 95 95 95 95 230 113 113 113 113 65 65 65 65 30 30
 30 159 159 159 159 159 53 53 53 214 214 214 214 214 95 95 95 95 95 100
 113 113 113 65 65 65 65 30 30 30 159 159 159 159 159 159 53 53 214 214
 214 131 131 136 136 136 136 100 100 100 113 85 85 85 65 26 30 30 30 159
 159 159 159 159 159 53 53 214 214 131 131 131 136 136 136 136 136 100 85 85
 85 85 85 199 199 199 199 199 159 159 159 159 159 159 53 143 143 143 131 131
 131 136 136 136 136 136 85 85 85 85 85 199 199 199 199 199 199 48 48 159
 159 159 159 143 143 143 143 143 131 131 136 136 136 136 136 85 85 85 85 85
 199 199 199 199 199 48 48 48 48 48 48 210 210 210 143 143 143 143 131 136
 136 136 136 85 85 85 85 85 85 199 199 199 199 199 48 48 48 48 48 48
 210 210 210 210 143 143 143 143 136 136 136 136 85 85 85 85 85 199 199 199
 199 199 199 48 48 48 48 48 15 15 210 210 210 210 210 143 143 136 136 136
 136 85 85 85 85 85 199 199 199 199 199 199 48 48 48 48 48 126 15 15
 210 210 210 210 210 70 106 106 106 88 88 85 85 85 85 199 199 199 199 199
 199 48 48 48 126 126 126 126 15 15 210 210 70 70 70 106 106 106 88 88
 88 85 85 85 199 199 192 192 192 58 58 58 48 126 126 126 132 132 15 15
 70 70 70 70 106 106 106 88 88 88 88 97 97 97 168 192 192 192 58 58
 58 58 132 132 126 132 132 132 70 70 70 70 70 106 106 106 88 88 88 97
 97 97 197 197 168 168 168 58 58 58 58 132 132 126 126 126 126 70 70 70
 70 70 106 106 106 88 88 88 97 97 97 197 197 168 168 168 58 58 58 58
 132 74 74 74 74 74 70 70 70 70 70 70 106 106 88 88 97 97 97 97
 197 197 197 168 168 58 58 79 79 101 101 101 101 101 101 61 61 61 61 70
 70 70 196 196 196 97 97 97 97 134 197 156 156 79 79 79 79 79 79 101
 101 101 101 101 61 61 61 61 70 117 117 117 196 196 134 134 134 134 134 134
 134 79 79 79 79 79 79 79 101 101 101 101 101 61 61 61 61 117 117 117
 117 196 196 134 134 134 134 134 134 134 73 79 79 79 79 79 79 101 101 101
 101 101 61 61 61 61 117 117 117 117 196 196 134 134 134 134 134 134 73 73
 73 73 79 79 79 79 241 241 101 101 101 61 61 61 61 117 117 117 117 196
 196 134 134 134 134 134 134 73 73 73 73 79 79 79 241 241 241 241 241 241
 61 61 61 61 117 117 117 117 145 145 145 146 146 146 114 114 73 73 73 73
 115 115 79 241 241 241 241 241 241 241 49 49 49 191 191 191 191 145 145 145
 146 146 146 114 114 114 73 73 73 115 115 115 241 241 241 241 241 241 49 49
 49 49 191 191 191 191 17 17 17 146 146 146 114 114 114 114 73 107 107 107
 107 241 241 241 241 205 205 49 49 49 49 191 191 191 191 1 17 17 17 146
 114 114 114 114 114 149 149 149 107 107 107 28 205 205 205 205 49 49 49 49
 49 1 1 1 1 17 17 17 17 114 114 114 114 107 149 149 149 107 107 28
 28 28 205 205 205 49 49 49 49 49 1 1 1 1 17 17 17 17 114 114
 114 114 107 149 149 149 107 107 28 28 28 28 205 205 49 49 49 49 49 1
 1 1 1 1 113 113 113 113 113 65 65 107 107 107 107 107 28 28 28 28
 28 28 205 49 49 49 49 49 1 1 1 1 113 113 113 113 113 113 65 65
 65 30 30 30 30 28 28 28 28 28 28 28 214 214 214 214 214 95 95 95
 95 113 113 113 113 113 113 65 65 4 30 30 30 159 159 159 159 28 28 28
 11 214 214 214 214 214 95 95 95 100 100 113 113 113 113 113 65 65 65 30
 30 30 159 159 159 159 159 28 11 11 172 172 172 214 214 95 95 95 100 100
 100 113 113 113 113 65 26 26 26 30 159 159 159 92 159 159 159 11 172 172
 172 172 172 75 136 136 136 100 100 100 100 113 113 85 85 26 26 26 26 159
 159 159 159 159 159 159 159 172 172 172 172 131 131 136 136 136 136 100 100 100
 85 85 85 26 26 26 26 26 159 159 159 159 159 159 159 159 143 143 143 143
 131 131 136 136 136 136 100 100 85 85 85 85 199 199 199 199 199 199 48 159
 159 159 159 159 143 143 143 143 143 143 131 136 136 136 136 85 85 85 85 85
 85 199 199 199 199 199 199 48 48 48 159 159 232 232 232 143 143 143 143 143
 136 136 136 136 85 85 85 85 85 85 199 199 199 199 199 199 48 48 48 48
 110 232 232 232 232 143 143 143 143 136 136 136 85 85 85 85 85 85 199 199
 199 199 199 199 199 48 48 48 48 232 232 232 232 232 232 143 143 143 136 136
 136 85 85 85 85 85 85 199 199 199 199 199 199 199 48 48 48 126 126 126
 232 232 232 232 232 70 70 106 106 106 88 85 85 85 85 85 199 199 199 199