# vtk DataFile Version 2.0
Data set from ImportExport Version 6.5.171.b0b162591
ASCII

DATASET RECTILINEAR_GRID
DIMENSIONS 30 30 30
X_COORDINATES 30 float
-1.250000 1.250000 3.750000 6.250000 8.750000 11.250000 13.750000 16.250000 18.750000 21.250000 23.750000 26.250000 28.750000 31.250000 33.750000 36.250000 38.750000 41.250000 43.750000 46.250000 48.750000 
51.250000 53.750000 56.250000 58.750000 61.250000 63.750000 66.250000 68.750000 71.250000 
Y_COORDINATES 30 float
-1.250000 1.250000 3.750000 6.250000 8.750000 11.250000 13.750000 16.250000 18.750000 21.250000 23.750000 26.250000 28.750000 31.250000 33.750000 36.250000 38.750000 41.250000 43.750000 46.250000 48.750000 
51.250000 53.750000 56.250000 58.750000 61.250000 63.750000 66.250000 68.750000 71.250000 
Z_COORDINATES 30 float
-1.250000 1.250000 3.750000 6.250000 8.750000 11.250000 13.750000 16.250000 18.750000 21.250000 23.750000 26.250000 28.750000 31.250000 33.750000 36.250000 38.750000 41.250000 43.750000 46.250000 48.750000 
51.250000 53.750000 56.250000 58.750000 61.250000 63.750000 66.250000 68.750000 71.250000 
CELL_DATA 24389
SCALARS FeatureIds int 1
LOOKUP_TABLE default
<<<<<<< Updated upstream
 184 184 184 101 101 101 101 101 101 147 147 147 147 147 60 60 60 60 60 60
 242 20 20 20 20 140 140 140 140 86 86 86 101 101 101 101 101 101 147 147
 147 147 147 60 60 60 60 60 60 242 20 20 20 20 140 140 140 140 86 86
 86 101 101 101 101 101 101 147 147 147 147 147 60 60 60 60 60 242 20 20
 20 20 20 20 140 140 86 86 86 86 86 101 101 101 101 101 147 147 147 147
 60 60 60 60 60 60 242 242 20 20 20 20 20 140 140 86 86 86 86 86
 86 101 101 189 189 147 147 147 147 60 60 60 60 60 60 242 20 20 20 20
 20 20 140 86 86 86 86 86 86 86 101 189 189 189 189 196 196 196 60 60
 60 60 60 60 60 20 20 20 20 20 20 20 86 86 86 86 86 86 86 34
 189 189 189 57 51 51 51 51 60 60 32 32 60 32 20 20 20 20 20 20
 20 86 86 235 235 235 34 34 34 34 34 57 51 51 51 51 51 32 32 32
 32 32 32 32 10 20 20 20 219 219 219 86 235 235 235 34 34 34 34 34
 34 51 51 51 51 32 32 32 32 32 32 32 32 10 163 163 163 219 219 219
 235 235 235 235 34 34 34 34 34 34 34 51 51 51 32 32 32 32 32 32
 32 32 10 163 163 163 245 245 245 235 235 235 235 34 34 34 34 34 34 216
 216 216 216 167 167 167 32 32 32 32 32 221 163 163 163 245 245 245 245 245
 235 235 34 34 34 34 34 34 224 216 216 209 167 167 167 167 32 32 32 221
 221 221 221 221 245 245 245 245 245 235 235 108 34 34 34 224 224 224 224 209
 209 209 167 167 167 32 32 32 221 221 221 221 221 245 245 245 245 245 108 108
 108 108 108 192 224 224 224 224 224 209 209 209 167 167 32 32 221 221 221 221
 109 109 109 245 245 84 84 108 108 108 108 108 192 224 224 224 224 224 209 209
 209 167 167 32 112 221 221 221 109 109 109 109 84 84 84 84 108 108 108 108
 108 192 192 224 224 224 224 209 209 209 209 209 112 112 112 112 221 109 109 109
 109 84 84 84 84 108 108 108 108 108 192 192 59 59 59 59 59 209 209 209
 112 112 112 112 112 112 109 109 109 84 84 84 84 172 108 108 108 108 108 192
 59 59 59 59 59 59 59 113 113 37 112 112 112 112 112 25 109 109 84 84
 84 84 172 157 172 108 108 229 229 6 59 59 59 59 59 113 113 113 37 112
 112 112 112 25 25 25 25 84 84 84 84 157 157 157 229 229 229 229 6 227
 227 59 59 113 113 113 113 113 112 112 112 112 25 25 25 25 144 84 157 157
 157 157 157 229 229 229 229 229 227 227 59 23 113 113 113 113 113 112 112 112
 112 25 25 25 25 144 157 157 157 157 157 157 229 229 229 229 229 227 227 23
 23 113 113 113 113 149 149 112 112 112 149 149 149 70 8 8 8 157 157 157
 157 229 229 229 229 229 229 227 23 23 113 113 113 113 113 149 112 112 149 149
 149 149 8 8 8 8 8 8 157 157 229 229 229 229 229 229 227 23 113 145
 145 145 145 145 130 130 130 130 130 130 130 8 8 8 8 8 8 157 111 111
 111 229 229 229 174 174 145 145 145 145 145 145 145 130 130 130 130 130 130 130
 8 8 8 8 8 184 184 111 111 111 111 111 174 174 174 174 145 145 145 145
 145 130 130 130 130 130 130 130 130 8 8 8 8 8 184 184 184 111 111 111
 111 174 174 174 174 145 145 145 145 90 130 130 130 130 130 130 130 130 8 8
 8 8 184 184 184 184 184 101 101 101 101 174 174 147 147 147 145 90 90 90
 130 130 130 204 204 204 204 204 140 140 184 184 184 184 184 101 101 101 101 101
 101 147 147 147 147 147 90 90 90 204 204 204 204 204 204 204 140 140 140 184
 184 184 184 184 101 101 101 101 101 101 174 147 147 63 63 63 60 60 60 60
 242 242 242 20 20 140 140 140 140 140 86 86 101 101 101 101 101 101 101 132
 147 147 63 63 60 60 60 60 60 242 242 242 20 20 140 140 140 140 140 86
 86 86 101 101 101 101 101 101 132 196 196 196 63 60 60 60 60 60 242 242
 242 20 20 20 140 140 140 140 86 86 86 86 101 101 101 101 101 196 196 196
 196 60 60 60 60 60 60 242 242 242 20 20 20 140 140 140 86 86 86 86
 86 86 101 101 101 57 196 196 196 196 60 60 60 60 60 60 242 242 242 20
 20 20 140 140 86 86 86 86 86 86 86 57 57 57 57 57 196 196 196 60
 60 60 60 60 60 242 242 20 20 20 20 20 140 86 86 86 86 86 86 86
 57 57 57 57 57 51 51 51 51 60 32 32 32 32 242 10 10 20 20 20
 20 219 86 86 235 235 235 34 34 34 57 57 57 51 51 51 51 51 32 32
 32 32 32 32 10 10 10 10 163 219 219 219 219 235 235 235 34 34 34 34
 34 57 51 51 51 51 51 32 32 32 32 32 32 10 10 10 163 163 219 219
 219 219 235 235 235 34 34 34 34 34 57 216 51 51 51 32 32 32 32 32
 32 32 10 10 163 163 163 219 219 219 219 235 235 235 34 34 34 34 34 34
 216 216 216 216 216 167 167 32 32 32 32 10 10 163 163 163 245 245 245 245
 245 235 235 34 34 34 34 34 34 216 216 216 216 216 167 167 167 32 32 32
 10 221 163 163 163 245 245 245 245 245 235 235 34 34 192 192 34 224 224 146
 216 216 216 167 167 167 32 32 32 221 221 221 221 109 245 245 245 245 108 108
 108 108 108 192 192 224 224 224 146 146 146 146 167 167 167 32 32 221 221 221
 221 109 109 109 245 245 245 108 108 108 108 108 192 192 224 224 224 224 146 146
 146 209 167 167 112 112 112 221 221 109 109 109 109 84 84 84 108 108 108 108
 108 108 192 192 224 224 224 224 146 146 209 209 167 112 112 112 112 112 109 109
 109 109 84 84 84 108 108 108 108 108 108 192 192 224 224 59 59 59 59 209
 37 37 112 112 112 112 112 109 109 109 84 84 84 84 172 172 108 108 108 192
 192 6 59 59 59 59 59 59 113 37 37 112 112 112 112 112 112 109 144 84
 84 84 84 172 172 172 172 108 6 6 6 227 59 59 59 59 113 113 37 37
 112 112 112 112 112 25 25 144 144 144 84 172 172 172 172 172 229 229 6 6
 227 227 59 59 113 113 113 37 37 112 112 112 112 112 25 70 144 144 144 172
 172 157 157 157 229 229 229 229 6 227 227 227 23 113 113 113 113 37 149 112
 112 112 149 149 70 70 144 144 157 157 157 157 157 229 229 229 229 229 227 227
 23 23 113 113 113 113 149 149 149 149 149 149 149 149 70 8 8 8 157 157
 157 157 229 229 229 229 229 227 227 23 23 113 113 113 113 149 149 149 149 149
 149 149 149 70 8 8 8 8 8 157 157 111 229 229 229 229 227 227 23 113
 113 113 113 113 113 130 130 130 130 130 149 149 8 8 8 8 8 8 157 111
 111 111 111 229 229 174 174 174 113 113 113 113 113 130 130 130 130 130 130 130
 130 8 8 8 8 8 184 184 111 111 111 111 111 174 174 174 174 174 145 145
 145 90 130 130 130 130 130 130 130 130 130 8 8 8 8 184 184 184 111 111
 111 111 174 174 174 174 174 174 145 90 90 90 130 130 130 130 130 130 130 130
 8 8 8 184 184 184 184 184 101 101 101 174 174 174 174 174 174 90 90 90
 90 130 130 130 130 130 130 130 140 140 140 184 184 184 184 184 101 101 101 101
 101 174 174 174 174 174 63 90 90 90 90 204 204 204 130 130 130 140 140 140
 140 184 184 184 184 101 101 101 101 101 174 174 132 132 63 63 63 90 90 90
 90 242 242 242 242 140 140 140 140 140 140 140 86 101 101 101 101 101 101 132
 132 132 196 63 63 63 60 60 60 242 242 242 242 242 20 140 140 140 140 140
 86 86 86 101 101 101 101 101 132 132 132 196 196 63 63 60 60 60 242 242
 242 242 20 20 140 140 140 140 140 86 86 86 86 101 101 101 101 132 196 196
 196 196 196 60 60 60 60 242 242 242 242 20 20 140 140 140 140 140 86 86
 86 86 86 101 101 57 57 196 196 196 196 196 60 60 60 60 242 242 242 242
 20 20 20 140 140 140 86 86 86 86 86 86 57 57 57 57 57 196 196 196
 196 60 60 60 60 242 242 242 242 20 20 20 140 140 86 86 86 86 86 86
 213 57 57 57 57 57 51 51 51 51 60 60 32 32 32 242 10 10 10 20
 203 219 219 219 86 219 235 235 34 34 34 57 57 57 51 51 51 51 51 32
 32 32 32 32 10 10 10 10 10 10 219 219 219 219 235 235 235 34 34 34
 34 57 57 51 51 51 51 51 32 32 32 32 32 32 10 10 10 163 163 219
 219 219 219 235 235 235 34 34 34 34 34 57 216 216 216 51 51 32 32 32
 32 32 32 10 10 10 163 163 219 219 219 219 235 235 235 34 34 34 34 34
 34 216 216 216 216 216 167 167 32 32 32 32 10 10 163 163 163 219 219 219
 219 235 235 235 34 34 34 34 34 216 216 216 216 216 216 167 167 167 32 32
 32 10 10 163 163 163 245 245 245 245 245 235 235 108 192 192 192 192 146 146
 146 216 216 216 167 167 167 32 32 32 221 10 221 221 109 245 245 245 245 245
 108 108 108 192 192 192 192 224 146 146 146 146 146 167 167 167 195 195 112 221
 221 221 109 109 245 245 245 245 108 108 108 108 108 192 192 192 224 224 146 146
 146 146 146 167 167 195 112 112 112 221 109 109 109 109 245 84 245 108 108 108
 108 108 192 192 192 224 224 224 146 146 146 146 167 112 112 112 112 112 112 109
 109 109 109 84 84 84 108 108 108 108 108 192 192 192 224 224 59 59 59 146
 37 37 37 112 112 112 112 112 112 109 109 144 84 84 84 172 172 172 108 108
 192 192 6 59 59 59 59 59 37 37 37 37 112 112 112 112 112 112 144 144
 144 144 144 172 172 172 172 172 108 6 6 6 6 59 59 59 59 37 37 37
 37 112 112 112 112 112 112 144 144 144 144 144 172 172 172 172 172 229 6 6
 6 6 227 59 59 59 113 37 37 37 112 112 112 112 112 70 70 144 144 144
 144 172 172 172 172 128 229 229 6 6 6 227 59 23 113 113 113 37 37 149
 112 112 112 149 149 70 70 144 144 144 172 157 157 157 128 229 229 229 6 6
 227 23 23 113 113 113 113 149 149 149 149 149 149 149 70 70 144 144 8 157
 157 157 128 128 128 229 229 6 6 227 23 23 113 113 113 113 149 149 149 149
 149 149 149 70 70 8 8 8 8 8 157 128 128 128 229 229 6 6 71 71
 113 113 113 113 113 149 149 149 149 149 149 149 70 70 8 8 8 8 8 157
 111 111 111 229 229 174 174 174 71 71 113 113 113 113 130 130 130 130 130 130
 130 130 8 8 8 8 8 184 184 111 111 111 111 174 174 174 174 174 174 113
 113 90 90 90 130 130 130 130 130 130 130 8 8 8 8 8 184 184 184 111
 111 111 174 174 174 174 174 174 174 90 90 90 90 90 130 130 130 130 130 130
 8 8 8 8 184 184 184 184 184 101 101 101 174 174 174 174 174 174 90 90
 90 90 90 130 130 130 130 130 130 140 140 140 184 184 184 184 184 101 101 101
 101 174 174 174 174 174 63 63 90 90 90 90 90 130 130 130 130 140 140 140
 140 140 184 190 190 190 101 101 101 101 101 174 132 132 132 63 63 63 90 90
 90 90 242 242 240 240 140 140 140 140 140 140 190 190 190 101 101 101 101 101
 132 132 132 132 63 63 63 63 60 242 242 242 242 240 240 240 140 140 140 140
 140 140 190 190 101 101 101 101 101 132 132 132 196 196 63 63 60 60 242 242
 242 242 242 240 240 140 140 140 140 140 86 86 86 86 101 101 101 101 132 132
 196 196 196 196 60 60 60 242 242 242 242 242 240 240 140 140 140 140 140 86
 86 86 213 213 213 213 57 57 196 196 196 196 196 60 60 60 242 242 242 242
 242 203 203 203 140 140 140 140 86 86 86 213 213 213 57 57 57 57 196 196
 196 196 60 60 60 242 242 242 242 242 203 203 203 203 140 140 86 86 86 213
 213 213 213 57 57 57 57 51 51 51 51 51 60 60 47 47 242 10 10 203
 203 203 203 219 219 219 219 235 213 213 213 213 57 57 57 51 51 51 51 51
 51 32 32 47 47 10 10 10 10 10 203 219 219 219 219 219 235 235 213 213
 213 57 57 57 51 51 51 51 51 32 32 32 32 32 10 10 10 10 10 163
 219 219 219 219 219 235 235 34 34 34 34 57 57 216 216 216 51 51 32 32
 32 32 32 10 10 10 10 163 163 219 219 219 219 219 235 235 34 34 34 34
 34 216 216 216 216 216 216 167 32 32 32 32 10 10 10 10 163 163 219 219
 219 219 219 235 235 34 34 34 34 192 216 216 216 168 216 216 167 167 32 32
 243 243 10 10 10 163 163 219 219 219 219 245 235 235 108 192 192 192 192 146
 146 146 146 216 216 167 167 167 195 243 243 243 10 10 163 163 245 245 245 245
 245 108 108 108 192 192 192 192 146 146 146 146 146 146 146 167 195 195 195 195
 195 195 195 109 109 245 245 245 245 108 108 108 108 192 192 192 192 192 146 146
 146 146 146 146 167 195 195 195 195 195 195 109 109 109 109 245 84 245 108 108
 108 108 192 192 192 192 192 224 146 146 146 146 146 146 195 195 112 112 112 112
 112 109 109 144 144 84 84 108 108 108 108 192 192 192 192 192 224 59 146 146
 146 37 37 37 112 112 112 112 112 112 144 144 144 144 144 172 172 172 172 108
 192 192 192 6 6 59 59 59 59 37 37 37 37 112 112 112 112 112 112 144
 144 144 144 144 172 172 172 172 172 192 6 6 6 6 59 59 59 59 37 37
 37 37 112 112 112 112 112 144 144 144 144 144 144 172 172 172 172 172 128 6
 6 6 6 59 59 62 62 37 37 37 37 37 112 112 112 112 70 70 144 144
 144 144 172 172 172 172 128 128 6 6 6 6 6 62 62 113 113 37 37 37
 149 149 112 149 149 70 70 70 144 144 144 172 172 172 128 128 128 229 6 6
 6 71 71 71 113 113 113 37 149 149 149 149 149 149 70 70 70 144 144 144
 172 157 128 128 128 128 229 6 6 6 71 71 71 113 113 113 113 149 149 149
 149 149 149 149 70 70 144 8 8 8 8 128 128 128 128 229 229 6 6 71
 71 71 71 113 113 113 149 149 149 149 149 149 149 70 70 8 8 8 8 8
 64 111 111 111 229 88 174 71 71 71 71 71 71 113 90 130 130 130 130 130
 130 149 133 133 133 8 8 8 64 64 111 111 111 111 174 174 174 174 174 71
 71 71 90 90 90 90 130 130 130 130 130 133 133 133 8 8 8 64 64 1
 1 1 1 174 174 174 174 174 174 71 90 90 90 90 90 130 130 130 130 130
 133 133 133 8 8 64 64 64 1 1 1 101 101 174 174 174 174 174 174 90
 90 90 90 90 90 130 130 130 130 140 140 140 140 140 184 184 184 1 1 101
 101 101 174 174 174 174 174 63 63 90 90 90 90 90 130 130 240 240 140 140
 140 140 140 140 190 190 190 1 101 101 101 101 174 132 132 132 63 63 63 90
 90 90 90 240 240 240 240 240 140 140 140 140 140 190 190 190 190 101 101 101
 101 132 132 132 132 63 63 63 63 60 242 242 242 242 240 240 240 140 140 140
 140 140 190 190 190 190 101 101 101 101 132 132 132 196 196 63 63 63 60 242
 242 242 242 240 240 240 140 140 140 140 140 190 190 190 190 213 213 213 213 132
 132 196 196 196 196 60 60 60 242 242 242 242 242 240 240 240 140 140 140 140
 86 86 213 213 213 213 213 213 57 196 196 196 196 196 60 60 60 242 242 242
 242 242 203 203 203 140 140 140 140 86 86 213 213 213 213 213 57 57 57 196
 196 196 196 60 60 60 242 242 242 242 203 203 203 203 203 140 140 140 219 213
 213 213 213 213 213 57 57 51 51 51 51 51 51 47 47 47 47 47 242 203
 203 203 203 203 203 219 219 219 219 213 213 213 213 213 57 57 51 51 51 51
 51 51 47 47 47 47 47 10 10 10 203 203 219 219 219 219 219 219 213 213
 213 213 213 213 57 51 51 51 51 51 47 47 47 47 47 10 10 10 10 10
 219 219 219 219 219 219 219 213 213 19 19 213 213 213 216 216 216 216 216 47
 47 47 47 47 10 10 10 10 10 219 219 219 219 219 219 219 235 19 19 19
 19 213 216 216 216 216 216 216 216 47 47 47 243 243 10 10 10 10 219 219
 219 219 219 219 235 235 19 19 19 19 192 216 216 216 216 216 216 216 167 47
 243 243 243 243 10 10 10 219 219 219 219 219 219 235 73 73 192 192 192 192
 146 146 146 146 146 146 146 195 195 195 243 243 243 243 10 10 219 219 219 219
 219 219 73 73 73 192 192 192 192 146 146 146 146 146 146 146 195 195 195 195
 195 195 195 195 109 109 197 197 219 197 73 73 73 73 73 192 192 192 192 146
 146 146 146 146 146 195 195 195 195 195 195 195 195 109 109 197 197 197 197 108
 73 73 73 73 192 192 192 192 146 146 146 146 146 146 195 195 195 195 195 195
 195 195 144 144 144 144 144 197 172 108 73 73 73 192 192 192 93 93 93 146
 146 146 37 37 37 112 112 112 112 112 112 144 144 144 144 144 5 172 172 172
 73 192 192 192 6 93 93 62 62 62 37 37 37 37 112 112 112 112 112 144
 144 144 144 144 144 172 172 172 172 172 192 6 6 6 6 53 62 62 62 37
 37 37 37 112 112 112 112 112 144 144 144 144 144 144 172 172 172 172 172 128
 6 6 6 6 53 62 62 62 37 37 37 37 112 112 112 112 112 70 70 144
 144 144 144 172 172 172 172 128 128 6 6 6 6 53 62 62 62 37 37 37
 37 149 112 112 112 149 70 70 70 144 144 144 172 172 172 128 128 128 128 6
 6 6 71 71 71 71 113 113 37 149 149 149 149 149 149 70 70 70 144 144
 144 172 172 128 128 128 128 128 6 13 13 71 71 71 71 71 113 113 149 149
 149 149 149 149 149 70 70 144 144 144 8 8 128 128 128 128 128 13 13 13
 71 71 71 71 71 113 113 149 149 149 149 149 149 149 70 133 133 144 8 8
 64 64 128 111 128 88 88 88 88 71 71 71 71 71 71 182 182 182 182 149
 149 149 149 133 133 133 133 8 8 64 64 1 1 1 1 88 88 174 174 71
 71 71 71 90 90 90 182 182 182 130 130 130 133 133 133 133 133 64 64 64
 1 1 1 1 88 174 174 174 174 174 71 90 90 90 90 90 90 130 130 130
 133 133 133 133 133 64 64 64 64 1 1 1 1 88 174 174 174 174 174 174
 90 90 90 90 90 90 130 130 240 240 133 133 133 140 64 64 64 64 1 1
 1 1 101 174 174 174 174 174 63 63 90 90 90 90 90 90 240 240 240 240
 140 140 140 140 64 190 190 190 1 1 101 101 234 234 132 132 132 63 63 182
 182 182 182 182 240 240 240 240 240 106 106 106 140 190 190 190 190 190 101 101
 101 234 234 132 132 132 63 63 63 182 182 182 242 242 240 240 240 240 240 106
 106 140 190 190 190 190 190 190 101 213 234 234 132 132 196 196 63 63 182 182
 242 242 242 242 240 240 240 240 106 140 140 190 190 190 190 190 213 213 213 213
 234 132 196 196 196 196 159 159 242 242 242 242 242 240 240 240 240 140 140 140
 140 190 190 213 213 213 213 213 213 213 196 196 196 196 196 159 159 242 242 242
 242 242 203 203 203 203 203 140 140 75 86 213 213 213 213 213 213 213 213 213
 196 196 196 196 143 47 47 242 242 242 242 203 203 203 203 203 203 26 75 219
 213 213 213 213 213 213 213 213 51 51 51 51 51 143 47 47 47 47 47 242
 203 203 203 203 203 26 26 26 219 213 213 213 213 213 213 213 213 51 51 51
 51 51 47 47 47 47 47 47 10 10 203 203 203 203 26 26 26 219 219 213
 213 213 213 213 213 213 51 51 51 51 51 47 47 47 47 47 47 10 10 10
 10 203 219 219 219 219 219 219 213 213 19 19 19 213 213 216 216 216 216 216
 47 47 47 47 47 243 10 10 10 10 219 219 219 219 219 219 219 213 19 19
 19 19 213 213 216 216 216 216 216 47 47 47 47 243 243 243 10 10 10 219
 219 219 219 219 219 219 213 19 19 19 19 213 150 150 216 216 216 216 216 47
 47 243 243 243 243 243 10 10 219 219 219 219 219 197 73 73 73 19 192 192
 150 150 150 146 146 146 146 146 195 195 195 243 243 243 243 10 10 197 197 197
 197 197 197 73 73 73 73 192 192 192 150 146 146 146 146 146 146 195 195 195
 195 195 195 195 195 195 197 197 197 197 197 73 73 73 73 73 192 192 192 93
 93 146 146 146 146 146 195 195 195 195 195 195 195 195 195 197 197 197 197 197
 5 73 73 73 73 192 192 192 93 93 93 93 146 146 146 195 195 195 195 195
 195 195 195 144 144 144 197 197 197 5 5 73 73 73 192 192 192 93 93 93
 93 93 146 37 195 195 195 112 112 112 112 112 144 144 144 144 144 5 5 5
 5 73 73 192 192 93 93 93 93 62 62 62 37 37 37 112 112 112 112 112
 144 144 144 144 144 144 5 5 5 5 5 73 6 6 6 53 53 62 62 62
 62 37 37 37 112 112 112 112 112 144 144 144 144 144 144 5 172 172 172 172
 128 6 6 6 53 53 62 62 62 62 37 37 37 112 112 112 112 112 144 144
 144 144 144 144 144 172 172 172 128 128 6 6 6 53 53 62 62 62 62 37
 37 37 149 112 112 112 149 70 70 144 144 144 144 144 172 172 128 128 128 128
 6 13 13 71 71 71 71 71 113 37 149 149 149 149 149 149 70 70 144 144
 144 144 144 152 152 152 152 152 13 13 13 13 71 71 71 71 71 71 113 149
 149 149 149 149 149 149 70 144 144 144 144 144 152 152 152 152 152 13 13 13
 13 71 71 71 71 71 71 182 182 182 149 149 149 149 149 133 133 133 133 133
 133 152 152 152 152 152 88 88 88 88 71 71 71 71 71 71 182 182 182 182
 182 149 149 133 133 133 133 133 133 133 64 64 1 1 1 88 88 88 88 71
 71 71 71 71 90 182 182 182 182 182 182 133 133 133 133 133 133 133 133 64
 64 1 1 1 1 88 88 88 174 174 71 71 71 90 182 182 182 182 182 182
 182 133 133 133 133 133 133 64 64 64 1 1 1 1 88 88 174 174 174 174
 71 90 90 90 182 182 182 182 182 240 240 133 133 133 133 133 64 64 64 1
 1 1 1 88 174 174 174 174 174 63 63 182 182 182 182 182 182 240 240 240
 240 133 133 140 64 64 190 190 190 1 1 1 234 234 234 234 234 234 63 63
 182 182 182 182 182 182 240 240 240 240 106 106 106 106 190 190 190 190 190 1
 1 234 234 234 234 234 234 63 159 182 182 182 182 182 242 240 240 240 240 106
 106 106 106 190 190 190 190 190 190 213 234 234 234 234 234 234 159 159 159 159
 182 182 242 242 242 240 240 240 106 106 106 106 190 190 190 190 190 213 213 213
 234 234 234 234 196 196 159 159 159 159 242 242 242 242 240 240 240 240 106 106
 75 75 75 190 213 213 213 213 213 213 213 234 196 196 196 159 159 159 159 242
 242 242 242 203 203 203 203 203 75 75 75 75 213 213 213 213 213 213 213 213
 213 44 44 44 44 143 143 47 47 242 242 242 203 203 203 203 203 75 75 75
 26 213 213 213 213 213 213 213 213 213 44 44 44 44 143 143 47 47 47 47
 242 203 203 203 203 203 26 26 26 26 26 213 213 213 213 213 213 213 44 44
 44 44 44 143 47 47 47 47 47 10 10 203 203 203 26 26 26 26 219 213
 213 213 213 213 213 213 213 44 44 44 44 44 47 47 47 47 47 47 10 10
 10 10 203 26 26 26 26 219 213 213 213 213 19 213 213 213 213 44 44 44
 44 47 47 47 47 47 243 243 10 10 10 219 219 219 26 26 219 219 213 213
 19 19 19 213 213 150 150 150 44 44 47 47 47 47 243 243 243 243 10 10
 41 219 219 219 219 197 197 213 213 19 19 19 213 150 150 150 150 216 216 216
 47 47 243 243 243 243 243 10 10 41 197 197 197 197 197 197 73 73 19 19
 19 150 150 150 150 150 146 146 146 195 195 195 195 243 243 195 195 195 197 197
 197 197 197 197 197 73 73 73 192 192 192 150 150 150 150 146 146 146 195 195
 195 195 195 195 195 195 195 197 197 197 197 197 197 73 73 73 73 192 192 192
 93 93 93 93 146 146 195 195 195 195 195 195 195 195 195 195 197 197 197 197
 197 5 5 73 73 73 192 192 93 93 93 93 93 93 93 195 195 195 195 195
 195 195 195 195 144 144 197 197 197 197 5 5 5 73 73 192 93 93 93 93
 93 93 93 93 93 195 195 195 195 112 112 112 131 144 144 144 144 144 5 5
 5 5 5 5 192 93 93 93 93 93 93 93 93 37 37 37 112 112 112 112
 112 144 144 144 144 144 144 5 5 5 5 5 5 93 93 93 93 93 93 62
 62 62 37 37 37 112 112 112 112 112 144 144 144 144 144 144 5 5 5 5
 5 5 6 6 93 93 53 62 62 62 62 37 37 37 112 112 112 112 112 144
 144 144 144 144 144 5 172 152 152 152 152 152 6 6 53 53 62 62 62 62
 37 37 37 112 112 112 112 112 144 144 144 144 144 144 144 152 152 152 152 152
 152 13 13 13 71 71 71 71 71 71 125 149 149 112 112 112 149 144 144 144
 144 144 144 144 152 152 152 152 152 13 13 13 13 13 71 71 71 71 71 125
 33 149 149 149 149 149 149 133 133 144 144 144 144 152 152 152 152 152 152 13
 13 13 71 71 71 71 71 71 33 33 182 182 112 149 149 133 133 133 133 133
 133 133 98 98 152 152 152 88 88 88 88 88 71 71 71 71 71 33 33 33
 33 182 182 133 133 133 133 133 133 133 133 98 98 98 152 152 88 88 88 88
 88 71 71 71 71 182 182 182 33 33 182 182 133 133 133 133 133 133 133 98
 64 64 1 1 1 88 88 88 88 88 71 71 71 71 182 182 182 182 182 182
 182 107 133 133 133 133 133 133 64 64 64 1 1 1 1 88 88 88 88 174
 174 71 182 182 182 182 182 182 182 182 240 133 133 133 133 133 133 64 64 64
 1 1 1 1 88 88 88 174 174 174 182 182 182 182 182 182 182 182 182 240
 240 133 106 106 106 133 64 190 190 190 1 1 1 234 234 234 234 234 234 159
 159 159 182 182 182 182 182 182 240 240 106 106 106 106 106 190 190 190 190 190
 1 234 234 234 234 234 234 234 159 159 159 159 182 182 182 182 182 240 240 240
 106 106 106 106 190 190 190 190 190 190 234 234 234 234 234 234 234 159 159 159
 159 159 182 182 182 242 240 240 240 106 106 106 106 75 75 190 190 213 213 213
 213 234 234 234 234 234 159 159 159 159 159 159 242 242 242 240 240 240 106 106
 75 75 75 75 75 213 213 213 213 213 213 234 193 193 193 159 159 159 159 159
 159 242 242 242 203 203 203 203 75 75 75 75 75 18 213 213 213 213 213 213
 213 193 44 44 44 208 143 143 143 143 222 222 242 203 203 203 203 75 75 75
 75 18 18 18 213 213 213 213 213 213 44 44 44 44 44 143 143 143 222 222
 222 83 83 203 203 203 26 26 26 26 18 18 18 213 213 213 213 213 213 44
 44 44 44 44 143 143 222 222 222 222 83 83 83 203 203 26 26 26 26 18
 18 18 213 213 213 213 213 213 44 44 44 44 44 143 143 222 222 222 222 83
 83 83 83 26 26 26 26 26 18 18 213 213 213 213 213 213 213 44 44 44
 44 44 143 47 47 47 222 243 83 83 83 83 41 41 26 26 26 18 18 213
 213 213 213 213 213 213 150 150 150 44 44 143 47 47 47 243 243 243 83 83
 41 41 41 41 41 26 197 197 213 213 19 19 19 213 150 150 150 150 44 44
 143 118 118 118 243 243 243 156 156 41 41 41 41 197 197 197 197 197 73 19
 19 103 150 150 150 150 150 150 146 118 118 118 118 195 195 156 156 156 41 41
 41 197 197 197 197 197 73 73 73 103 103 150 150 150 150 150 150 146 118 118
 118 118 195 195 195 195 156 41 41 197 197 197 197 197 197 73 73 73 192 192
 93 93 93 93 93 93 93 118 118 118 118 195 195 195 195 195 131 197 197 197
 197 197 5 5 5 73 73 192 93 93 93 93 93 93 93 93 118 118 118 195
 195 195 195 195 131 131 197 197 197 197 197 5 5 5 5 5 5 93 93 93
 93 93 93 93 93 201 118 118 195 195 112 131 131 131 131 144 144 144 5 5
 5 5 5 5 5 5 93 93 93 93 93 93 93 93 201 201 201 112 112 112
 131 131 131 131 81 81 81 5 5 5 5 5 5 5 5 93 93 93 93 93
 93 93 201 201 201 201 201 112 112 131 131 131 144 81 81 81 144 5 5 5
 5 5 5 93 93 93 93 93 93 62 62 62 201 201 201 112 112 112 131 131
 131 144 81 81 81 144 5 5 152 152 152 152 152 93 93 93 93 93 62 62
 62 201 201 201 112 112 112 112 131 131 144 81 81 81 144 144 152 152 152 152
 152 152 13 13 13 71 71 71 71 71 125 125 125 125 112 112 112 149 131 144
 81 81 81 144 144 29 152 152 152 152 152 13 13 13 13 71 71 71 71 125
 125 125 125 112 112 112 149 107 133 133 133 133 133 133 29 152 152 152 152 152
 13 13 13 88 200 200 200 200 125 33 33 33 182 182 182 107 107 133 133 133
 133 133 133 98 98 152 152 152 88 88 88 88 88 200 200 200 71 71 33 33
 33 33 182 182 107 107 133 133 133 133 133 133 98 98 98 152 152 88 88 88
 88 88 200 71 71 71 33 33 33 33 33 182 182 107 107 133 133 133 133 133
 98 98 98 98 1 1 88 88 88 88 88 200 71 71 71 182 182 182 182 182
 182 182 107 107 133 133 133 133 133 133 64 64 1 1 1 88 88 88 88 88
 88 174 71 182 182 182 182 182 182 182 182 107 107 133 133 133 133 133 133 64
 64 1 1 1 1 88 88 88 88 88 174 182 182 182 182 182 182 182 182 182
 240 240 133 106 106 106 133 64 69 69 69 1 1 234 234 234 234 234 234 234
 159 159 159 159 182 182 182 182 182 240 240 106 106 106 106 106 106 69 69 69
 69 69 234 234 234 234 234 234 234 159 159 159 159 159 182 182 182 182 240 240
 106 106 106 106 106 106 69 69 69 69 69 234 234 234 234 234 234 234 159 159
 159 159 159 159 182 182 182 240 240 106 106 106 106 75 75 75 69 69 213 213
 213 234 234 193 193 193 193 159 159 159 159 159 159 182 182 138 240 240 106 106
 106 75 75 75 75 75 18 213 213 213 213 213 193 193 193 193 208 208 159 159
 159 159 159 222 138 203 203 203 203 75 75 75 75 75 18 18 213 213 213 213
 213 193 193 44 44 208 208 143 143 143 143 143 222 222 203 203 203 203 75 75
 75 75 18 18 18 213 213 213 213 213 213 44 44 44 44 208 143 143 143 222
 222 222 222 83 83 203 203 26 26 26 26 18 18 18 18 213 213 213 213 213
 44 44 44 44 44 143 143 143 222 222 222 83 83 83 83 26 26 26 26 26
 18 18 18 18 213 213 213 213 213 44 44 44 44 44 143 143 222 222 222 222
 83 83 83 83 83 26 26 26 26 18 18 18 18 213 213 236 236 236 44 44
 44 44 44 143 143 222 222 222 83 83 83 83 83 41 41 41 26 26 18 18
 18 18 213 236 236 236 236 150 150 44 44 44 143 143 47 47 243 83 83 83
 83 41 41 41 41 41 26 197 197 18 4 236 236 236 103 103 150 150 150 44
 44 118 118 118 118 118 156 156 156 156 41 41 41 41 41 197 197 197 197 4
 103 103 103 103 103 150 150 150 150 44 118 118 118 118 118 118 156 156 156 41
 41 41 41 197 197 197 197 197 73 103 103 103 103 103 150 150 150 150 118 118
 118 118 118 118 118 156 156 156 41 41 41 197 197 197 197 197 5 73 73 103
 103 103 103 93 93 93 93 164 118 118 118 118 118 118 195 156 156 131 41 197
 197 197 197 5 5 5 5 73 103 93 93 93 93 93 93 93 164 164 118 118
 118 118 118 131 131 131 131 66 66 197 197 197 5 5 5 5 5 93 93 93
 93 93 93 93 93 93 201 201 118 118 118 131 131 131 131 131 66 66 66 5
 5 5 5 5 5 5 5 93 93 93 93 93 93 93 201 201 201 201 201 112
 131 131 131 131 131 81 81 81 5 5 5 5 5 5 5 93 93 93 93 93
 93 93 93 201 201 201 201 201 131 131 131 131 131 131 81 81 81 5 5 5
 5 5 5 152 93 93 93 93 93 93 93 93 201 201 201 201 201 112 131 131
 131 131 131 81 81 81 81 5 5 5 152 152 152 152 45 93 93 93 93 93
 62 201 201 201 201 201 112 131 131 131 131 131 81 81 81 81 5 29 152 152
 152 152 152 13 13 13 200 200 200 200 125 125 125 125 125 112 112 112 131 131
 110 81 81 81 110 110 29 29 152 152 152 152 13 13 13 200 200 200 200 200
 125 125 125 125 125 112 112 131 110 110 110 110 110 110 110 29 29 152 152 152
 152 88 88 88 200 200 200 200 200 125 125 125 33 182 182 182 107 107 107 133
 133 133 133 29 29 98 152 152 152 152 88 88 88 88 200 200 200 200 125 33
 33 33 182 182 182 107 107 107 133 133 133 133 133 98 98 98 152 152 88 88
 88 88 88 200 200 200 200 33 33 33 33 182 182 182 107 107 107 133 133 133
 133 133 98 98 98 152 152 88 88 88 88 88 200 200 200 200 182 182 182 182
 182 182 182 107 107 107 133 133 133 133 133 64 64 1 1 1 88 88 88 88
 88 88 200 200 182 182 182 182 182 182 182 182 107 107 107 133 133 133 133 133
 64 64 1 1 1 88 88 88 88 88 88 200 182 182 182 182 182 182 182 182
 182 107 107 107 106 106 106 133 133 69 69 69 69 69 69 234 234 234 234 234
 234 159 159 159 159 182 182 182 182 182 87 87 106 106 106 106 106 69 69 69
 69 69 69 234 234 234 234 234 234 234 159 159 159 159 159 182 182 182 182 182
 87 106 106 106 106 106 69 69 69 69 69 69 234 234 234 193 193 193 193 159
 159 159 159 159 159 182 182 182 182 240 106 106 106 106 75 69 69 69 69 69
 69 246 246 193 193 193 193 193 159 159 159 159 159 159 182 138 138 138 240 106
 106 106 75 75 75 75 69 69 69 213 246 246 246 193 193 193 193 208 208 159
 159 159 159 159 138 138 138 166 166 75 75 75 75 75 18 18 18 18 213 213
 246 246 193 193 44 44 208 208 208 143 143 143 138 138 138 138 166 166 166 75
 75 75 75 18 18 18 18 213 213 78 78 78 44 44 44 44 208 143 143 143
 143 222 222 83 166 166 166 166 166 96 96 18 18 18 18 18 213 78 78 78
 78 44 44 44 44 44 143 143 143 222 222 222 83 83 83 166 166 166 96 96
 18 18 18 18 18 236 236 236 236 78 44 44 44 44 44 143 143 143 222 222
 83 83 83 83 83 166 166 96 96 18 18 18 18 18 236 236 236 236 236 44
 44 44 44 44 143 143 143 222 222 83 83 83 83 83 41 41 41 41 26 18
 18 18 236 236 236 236 236 236 44 44 44 44 44 143 143 30 30 30 83 83
 83 83 41 41 41 41 41 41 197 4 4 4 236 236 236 236 103 103 150 150
 44 44 143 118 118 118 118 156 156 156 156 41 41 41 41 41 197 197 4 4