# vtk DataFile Version 2.0
Data set from ImportExport Version 6.5.171.b0b162591
ASCII

DATASET RECTILINEAR_GRID
DIMENSIONS 30 30 30
X_COORDINATES 30 float
-1.250000 1.250000 3.750000 6.250000 8.750000 11.250000 13.750000 16.250000 18.750000 21.250000 23.750000 26.250000 28.750000 31.250000 33.750000 36.250000 38.750000 41.250000 43.750000 46.250000 48.750000 
51.250000 53.750000 56.250000 58.750000 61.250000 63.750000 66.250000 68.750000 71.250000 
Y_COORDINATES 30 float
-1.250000 1.250000 3.750000 6.250000 8.750000 11.250000 13.750000 16.250000 18.750000 21.250000 23.750000 26.250000 28.750000 31.250000 33.750000 36.250000 38.750000 41.250000 43.750000 46.250000 48.750000 
51.250000 53.750000 56.250000 58.750000 61.250000 63.750000 66.250000 68.750000 71.250000 
Z_COORDINATES 30 float
-1.250000 1.250000 3.750000 6.250000 8.750000 11.250000 13.750000 16.250000 18.750000 21.250000 23.750000 26.250000 28.750000 31.250000 33.750000 36.250000 38.750000 41.250000 43.750000 46.250000 48.750000 
51.250000 53.750000 56.250000 58.750000 61.250000 63.750000 66.250000 68.750000 71.250000 
CELL_DATA 24389
SCALARS FeatureIds int 1
LOOKUP_TABLE default
 5 5 5 5 5 5 228 228 198 198 198 228 118 118 118 232 232 232 64 64
 200 200 200 200 200 200 200 200 200 5 5 5 5 5 5 228 228 198 198 198
 228 232 232 232 232 232 232 64 64 64 200 200 200 200 200 200 200 200 28 28
 28 28 28 228 228 228 198 198 198 228 232 232 232 232 232 232 64 64 64 64
 200 200 200 200 200 200 200 28 28 28 28 28 228 228 228 228 228 228 228 232
 232 232 232 232 232 64 64 64 64 200 200 200 200 200 200 200 71 71 71 71
 171 101 43 43 43 43 43 43 232 232 232 232 232 232 64 64 64 64 9 9
 9 200 200 200 71 71 71 71 71 71 101 43 43 43 43 43 43 239 232 46
 46 46 232 64 64 9 9 9 9 9 9 9 71 71 71 71 71 71 71 101
 43 43 43 43 43 43 239 232 46 46 46 232 64 9 9 9 9 9 9 9
 203 71 71 71 71 71 143 143 102 102 43 43 43 43 72 239 177 177 177 177
 177 199 9 9 9 9 9 9 9 203 203 143 143 143 143 143 143 102 102 102
 102 43 72 72 72 177 177 177 177 177 199 9 9 9 9 9 9 142 203 203
 203 203 143 143 143 143 201 201 102 201 201 72 72 72 177 113 177 177 177 177
 9 9 9 9 9 142 142 203 203 203 203 241 241 241 241 201 201 201 201 201
 72 72 72 113 113 113 113 13 13 13 9 9 9 9 142 142 203 203 203 241
 241 241 241 241 241 32 32 32 32 72 72 72 113 113 113 113 13 13 13 9
 9 9 81 81 81 203 203 203 241 241 241 241 241 241 32 32 32 32 32 72
 113 113 113 113 13 13 13 13 13 13 81 81 81 81 81 81 81 241 241 241
 241 241 241 32 32 32 32 32 72 222 222 222 222 13 13 13 13 13 133 133
 133 81 81 81 81 81 241 241 241 241 241 241 32 32 32 32 32 37 222 222
 222 222 13 13 13 13 197 95 95 81 81 81 81 81 81 174 174 241 241 241
 241 32 32 32 32 32 37 37 222 222 222 222 13 13 13 197 95 95 95 95
 81 81 81 174 174 174 174 174 241 241 32 32 32 66 66 37 37 222 222 222
 222 222 13 197 197 95 95 95 95 81 81 174 174 174 174 174 174 15 15 15
 66 66 66 66 66 37 37 222 222 222 222 222 197 197 95 95 95 95 95 81
 174 174 174 174 174 15 15 15 15 66 66 66 66 66 37 37 37 222 222 222
 222 197 197 197 95 95 95 95 95 174 174 174 174 174 15 15 15 15 66 66
 66 66 66 37 108 108 108 108 108 137 96 197 197 95 95 95 95 11 174 174
 174 174 174 15 15 15 15 15 66 66 66 66 66 108 108 108 108 108 137 137
 76 76 76 76 11 11 11 11 174 174 174 174 15 15 15 15 15 66 66 66
 66 108 108 108 108 108 108 137 76 76 76 76 76 11 11 11 11 59 59 59
 174 15 15 15 15 93 66 66 66 66 108 108 108 108 108 108 137 76 76 76
 76 76 54 54 54 59 59 59 59 5 138 138 93 93 93 93 93 93 118 108
 108 108 108 108 108 137 76 76 76 76 54 54 54 54 59 59 59 59 5 5
 93 93 93 93 93 93 93 118 118 118 108 108 108 108 137 76 76 76 76 54
 54 54 54 59 59 59 5 5 5 5 93 93 93 93 93 93 118 118 118 118
 118 118 118 91 76 76 76 54 54 54 54 54 59 59 59 5 5 5 5 5
 93 93 93 93 93 118 118 118 118 118 118 91 91 91 91 76 54 54 54 54
 54 59 59 59 5 5 5 5 5 93 93 93 93 118 118 118 118 118 118 118
 91 91 91 91 200 200 200 54 54 54 59 59 5 5 5 5 5 5 93 93
 228 228 228 118 118 118 118 118 118 91 91 91 91 200 200 200 200 200 54 59
 59 5 5 5 5 5 5 198 198 198 198 198 198 118 118 118 232 232 91 91
 91 91 200 200 200 200 200 200 200 200 28 28 28 28 28 198 198 198 198 198
 198 198 232 232 232 232 232 232 64 64 64 200 200 200 200 200 200 200 200 28
 28 28 28 28 28 198 198 198 198 198 198 232 232 232 232 232 232 64 64 64
 200 200 200 200 200 200 200 200 28 28 28 28 28 101 188 188 188 188 188 188
 232 232 232 232 232 232 64 64 64 64 200 200 200 200 200 200 200 28 28 28
 171 171 101 43 43 43 43 43 43 232 232 232 232 232 232 64 64 64 64 9
 200 200 200 200 200 143 71 71 71 171 171 101 101 43 43 43 43 43 232 232
 46 46 46 232 64 64 9 9 9 9 9 9 9 143 143 143 71 143 143 171
 101 43 43 43 43 43 43 239 232 46 46 46 232 64 9 9 9 9 9 9
 9 203 143 143 143 143 143 143 171 201 201 201 43 43 43 72 72 177 46 46
 46 177 199 9 9 9 9 9 9 203 203 203 143 143 143 143 143 143 201 201
 201 201 201 72 72 72 113 113 113 113 177 9 9 9 9 9 9 9 203 203
 203 203 203 143 143 143 201 201 201 102 201 201 72 72 72 113 113 113 113 113
 113 9 9 9 9 9 9 203 203 203 203 203 241 241 241 241 201 201 201 201
 201 72 72 72 113 113 113 113 113 13 13 9 9 9 9 142 203 203 203 203
 241 241 241 241 241 241 32 32 32 32 72 72 72 113 113 113 113 13 13 13
 13 9 81 81 81 81 81 203 203 241 241 241 241 241 241 32 32 32 32 32
 72 72 113 113 113 13 13 13 13 13 13 81 81 81 81 81 81 203 241 241
 241 34 241 241 32 32 32 32 32 72 222 222 222 222 13 13 13 13 13 13
 81 81 81 81 81 81 81 241 241 241 241 241 241 32 32 32 32 32 37 37
 222 222 222 222 13 13 13 197 197 81 81 81 81 81 81 81 174 174 241 241
 241 241 32 32 32 32 37 37 37 222 222 222 222 13 13 197 197 197 95 95
 81 81 81 81 81 174 174 174 174 241 241 32 32 32 66 37 37 37 37 222
 222 222 222 13 197 197 197 197 95 95 81 81 81 174 174 174 174 174 15 15
 15 66 66 66 66 37 37 37 37 222 222 222 197 197 197 197 197 95 95 95
 81 174 174 174 174 174 15 15 15 15 66 66 66 66 66 37 37 37 37 222
 222 197 197 197 197 197 197 95 95 11 174 174 174 174 174 15 15 15 15 15
 66 66 66 66 37 37 108 108 108 108 96 96 197 197 197 197 11 11 11 11
 174 174 174 174 15 15 15 15 66 66 66 66 66 37 108 108 108 108 108 96
 96 96 96 197 11 11 11 11 11 146 146 146 174 15 15 15 15 66 66 66
 66 66 108 108 108 108 108 108 96 96 96 96 76 11 11 11 11 11 146 146
 146 138 15 15 15 15 93 66 66 66 66 108 108 108 108 108 108 96 96 96
 96 76 11 11 11 11 11 59 59 59 138 138 138 138 93 93 93 93 93 108
 108 108 108 108 108 108 96 96 96 76 76 54 54 54 54 59 59 59 59 138
 138 138 138 93 93 93 93 93 118 118 118 118 108 108 108 96 96 76 76 54
 54 54 54 54 59 59 59 59 5 138 138 138 93 93 93 93 93 118 118 118
 118 118 118 91 91 91 91 76 54 54 54 54 54 59 59 59 5 5 5 138
 138 93 93 93 93 118 118 118 118 118 118 118 91 91 91 91 91 54 54 54
 54 54 59 59 59 5 5 5 5 138 93 93 93 93 118 118 118 118 118 118
 118 91 91 91 91 200 200 200 54 54 54 59 59 5 5 5 5 5 5 93
 93 198 198 198 118 118 118 118 118 118 91 91 91 91 200 200 200 200 200 54
 59 59 28 28 28 28 28 28 198 198 198 198 198 198 118 118 118 232 232 91
 91 91 91 200 200 200 200 200 200 200 200 28 28 28 28 28 28 198 198 198
 198 198 198 232 232 232 232 232 232 64 64 64 200 200 200 200 200 200 200 200
 28 28 28 28 28 28 188 188 188 188 188 188 232 232 232 232 232 232 64 64
 64 200 200 200 200 200 200 200 200 28 28 28 28 28 101 188 188 188 188 188
 188 232 232 232 232 232 232 64 64 64 64 200 200 200 200 200 200 143 28 28
 28 171 171 101 101 188 188 188 188 188 232 232 232 232 232 232 64 64 64 64
 9 200 200 200 200 143 143 143 143 171 171 171 101 101 43 43 43 43 43 232
 232 46 46 46 232 64 64 9 9 9 9 9 9 9 143 143 143 143 143 171
 171 101 101 43 43 43 43 99 99 232 46 46 46 232 64 9 9 9 9 9
 9 9 203 143 143 143 143 143 143 171 101 201 201 43 43 99 72 72 72 46
 46 46 195 9 9 9 9 9 9 9 9 203 203 143 143 143 143 143 171 201
 201 201 201 10 72 72 72 72 113 113 113 195 9 9 9 9 9 9 9 203
 203 203 203 203 143 143 143 201 201 201 102 201 10 72 72 72 113 113 113 113
 195 195 9 9 9 9 9 9 203 203 203 203 203 143 241 241 241 102 102 102
 102 10 72 72 72 113 113 113 113 113 13 13 9 9 9 9 203 203 203 203
 203 203 241 241 241 241 241 32 32 32 32 72 72 72 113 113 113 113 13 13
 13 13 21 21 81 81 81 81 203 203 241 241 241 241 241 241 32 32 32 32
 32 124 113 113 113 113 113 13 13 13 13 21 81 81 81 81 81 81 203 241
 241 241 241 241 241 32 32 32 32 32 124 222 222 222 222 13 13 13 13 157
 157 157 81 81 81 81 81 81 241 241 241 241 241 241 32 32 32 32 32 37
 37 222 222 222 222 13 13 13 157 157 157 81 81 81 81 81 81 174 174 241
 241 241 241 32 32 32 32 37 37 37 37 222 222 222 13 13 197 197 197 197
 197 81 81 81 81 81 174 174 174 174 241 241 32 32 32 37 37 37 37 37
 37 222 222 222 197 197 197 197 197 197 197 81 81 81 174 174 174 174 174 15
 15 15 15 66 66 66 37 37 37 37 222 222 222 197 197 197 197 197 197 197
 197 81 174 174 174 174 174 15 15 15 15 15 66 66 66 37 37 37 37 37
 37 222 197 197 197 197 197 197 197 11 11 174 174 174 174 174 15 15 15 15
 15 66 66 66 66 37 37 37 108 108 108 96 96 197 197 197 197 11 11 11
 11 174 146 174 174 15 15 15 15 66 66 66 66 66 37 108 108 108 108 108
 96 96 96 96 197 11 11 11 11 11 146 146 146 146 15 15 15 15 66 66
 66 66 66 37 108 108 108 108 108 96 96 96 96 96 11 11 11 11 11 146
 146 146 138 138 138 138 138 93 66 66 66 66 108 108 108 108 108 108 96 96
 96 96 96 11 11 11 11 11 146 146 146 138 138 138 138 138 93 93 93 93
 118 108 108 108 108 108 108 96 96 96 96 96 54 54 54 11 59 146 59 59
 138 138 138 138 138 93 93 93 93 118 118 118 208 208 208 208 96 96 96 96
 54 54 54 54 54 59 59 59 59 138 138 138 138 138 93 93 93 93 118 118
 118 118 118 12 91 91 91 91 91 54 54 54 54 54 59 59 59 59 138 138
 138 138 138 93 93 93 93 118 118 118 118 118 12 91 91 91 91 91 54 54
 54 54 54 59 59 59 59 5 138 138 138 138 93 93 93 118 118 118 118 118
 118 12 91 91 91 91 91 200 200 54 54 54 59 59 59 5 5 5 138 138
 138 93 198 198 198 118 118 118 118 118 91 91 91 91 91 200 200 200 200 200
 54 59 59 28 28 28 28 28 28 198 198 198 198 198 198 118 118 118 232 12
 12 91 91 91 200 200 200 200 200 200 111 111 28 28 28 28 28 28 188 188
 188 188 188 188 118 232 232 232 232 232 64 64 64 200 200 200 200 200 200 111
 111 28 28 28 28 28 28 188 188 188 188 188 188 232 232 232 232 232 232 64
 64 64 200 200 200 200 200 200 111 111 28 28 28 28 28 101 188 188 188 188
 188 188 188 232 232 232 232 232 64 64 64 64 200 200 200 200 200 111 111 28
 28 28 171 171 101 101 188 188 188 188 188 188 232 232 232 232 232 64 64 64
 64 9 200 200 200 200 111 143 28 28 171 171 171 101 101 99 99 99 99 99
 99 232 232 232 232 232 64 64 64 9 9 9 9 9 213 213 143 143 171 171
 171 171 101 101 99 99 99 99 99 99 202 202 202 202 202 64 9 9 9 9
 9 9 9 213 213 143 143 143 171 171 171 101 101 99 99 99 99 99 99 202
 202 202 202 195 195 9 9 9 9 9 9 89 213 213 213 143 143 143 143 171
 101 201 10 10 10 10 10 72 72 113 202 195 195 195 195 9 9 9 9 89
 89 213 213 213 213 143 143 143 171 201 201 10 10 10 10 10 72 113 113 113
 195 195 195 195 9 9 9 89 89 89 213 213 213 213 143 241 241 241 102 102
 10 10 10 10 10 72 113 113 113 195 195 195 195 21 21 21 89 89 89 213
 213 213 241 241 241 241 241 241 32 32 32 10 10 124 124 124 113 113 113 195
 13 195 21 21 21 21 89 81 81 81 213 241 241 241 241 241 241 32 32 32
 32 124 124 124 124 113 113 13 13 13 13 21 21 21 21 81 81 81 81 81
 241 241 241 241 241 241 32 32 32 32 124 124 124 124 222 222 13 13 13 13
 157 157 157 81 81 81 81 81 81 241 241 241 241 241 241 32 32 32 32 124
 124 124 37 222 222 222 13 13 157 157 157 157 157 81 81 81 81 81 174 241
 241 241 241 241 32 32 32 32 37 37 37 37 37 222 222 13 13 197 157 157
 157 157 81 81 81 81 81 174 174 174 174 241 241 32 32 32 236 37 37 37
 37 37 222 222 222 197 197 197 197 197 197 197 81 81 81 174 174 174 174 174
 15 15 15 15 66 236 37 37 37 37 37 37 222 222 197 197 197 197 197 197
 197 197 81 174 174 174 174 174 15 15 15 15 15 66 66 66 37 37 37 37
 37 37 37 197 197 197 197 197 197 197 197 11 174 174 174 174 174 15 15 15
 15 66 66 66 66 37 37 37 37 37 37 96 96 96 96 197 197 197 11 11
 11 11 146 146 146 146 15 15 15 15 66 66 66 66 66 37 37 108 108 108
 96 96 96 96 96 197 11 11 11 11 11 146 146 146 146 15 15 15 15 66
 66 66 66 66 37 108 108 108 108 96 96 96 96 96 197 11 11 11 11 146
 146 146 146 146 138 138 138 138 48 48 48 48 48 208 208 208 208 208 96 96
 96 96 96 96 11 11 11 11 146 146 146 146 146 138 138 138 138 138 48 48
 48 48 208 208 208 208 208 208 96 96 96 96 96 11 11 11 11 146 146 146
 146 138 138 138 138 138 138 93 93 48 118 208 208 208 208 208 208 96 96 96
 96 54 54 54 54 54 59 146 59 138 138 138 138 138 138 138 93 93 93 118
 118 118 208 208 12 12 12 12 12 12 54 54 54 54 54 59 59 59 22 22
 138 138 138 138 138 93 93 118 118 118 118 118 12 12 12 91 91 91 91 54
 54 54 54 54 59 59 59 22 22 22 138 138 138 138 93 93 118 118 118 118
 118 12 12 91 91 91 91 91 200 200 54 54 54 59 59 59 22 22 22 138
 138 138 138 198 198 198 118 118 118 118 12 12 91 91 91 91 200 200 200 200
 200 54 59 59 28 28 22 22 22 22 188 188 198 198 198 235 235 235 235 12
 12 12 12 12 91 209 209 209 209 209 209 111 111 28 28 28 28 28 28 188
 188 188 188 188 188 235 235 232 12 12 12 12 12 209 209 209 209 209 209 111
 111 111 28 28 28 28 28 28 188 188 188 188 188 188 188 232 232 232 232 232
 64 64 64 209 209 209 209 209 209 111 111 28 28 28 28 28 28 188 188 188
 188 188 188 188 232 232 232 232 232 64 64 64 209 209 209 209 209 111 111 111
 28 28 28 28 171 101 101 99 99 99 99 99 99 232 232 232 232 232 64 64
 64 64 209 209 209 209 111 111 111 28 28 171 171 171 101 101 99 99 99 99
 99 99 202 202 202 202 202 64 64 64 9 9 9 209 89 213 213 213 143 171
 171 171 171 101 101 99 99 99 99 99 99 202 202 202 202 202 202 195 9 9
 9 9 89 89 213 213 213 143 171 171 171 171 101 101 99 99 99 99 99 99
 202 202 202 202 195 195 195 9 9 89 89 89 89 213 213 213 213 143 143 171
 171 101 10 10 10 10 10 10 99 202 202 202 195 195 195 195 9 9 89 89
 89 89 213 213 213 213 213 143 171 171 10 10 10 10 10 10 10 10 128 113
 195 195 195 195 195 195 21 89 89 89 89 213 213 213 213 213 241 241 241 10
 10 10 10 10 10 10 10 124 113 195 195 195 195 195 21 21 21 89 89 89
 213 213 213 213 241 241 241 241 241 32 10 10 10 10 124 124 124 124 195 195
 195 195 195 21 21 21 21 89 89 89 213 213 241 241 241 241 241 241 32 32
 32 124 124 124 124 124 124 113 13 13 13 195 21 21 21 21 89 89 89 81
 213 241 241 241 241 241 241 32 32 32 124 124 124 124 124 124 222 13 13 13
 157 157 157 21 21 81 81 81 81 81 241 241 241 241 241 241 32 32 32 124
 124 124 124 124 124 222 222 13 13 157 157 157 157 103 103 81 81 81 81 174
 241 241 241 241 125 32 32 32 124 124 124 124 37 37 37 222 13 157 157 157
 157 157 103 103 81 81 81 81 174 174 220 220 220 220 32 32 236 236 236 37
 37 37 37 37 37 222 197 197 197 197 197 103 103 103 81 81 174 174 174 220
 220 220 220 15 236 236 236 236 37 37 37 37 37 37 37 197 197 197 197 197
 197 197 197 197 146 174 174 174 220 220 220 15 15 236 236 236 236 37 37 37
 37 37 37 17 17 197 197 197 197 197 197 197 11 146 146 146 146 220 220 15
 15 15 236 236 236 236 236 37 37 37 37 37 96 96 96 197 197 197 197 11
 11 11 146 146 146 146 146 220 15 15 15 66 236 236 236 236 37 37 37 208
 208 96 96 96 96 96 197 11 11 11 11 146 146 146 146 146 146 138 15 48
 48 48 48 48 48 208 208 208 208 208 96 96 96 96 96 96 11 11 11 11
 146 146 146 146 146 138 138 138 217 48 48 48 48 48 208 208 208 208 208 208
 96 96 96 96 96 11 11 11 11 146 146 146 146 146 138 138 138 217 217 48
 48 48 48 208 208 208 208 208 208 96 96 96 96 96 11 11 11 146 146 146
 146 146 138 138 138 138 138 138 48 48 48 48 208 208 208 208 208 208 12 96
 96 96 104 54 54 54 146 146 146 146 22 22 138 138 138 138 138 48 48 48
 235 235 235 208 208 12 12 12 12 12 104 104 104 54 54 54 59 59 22 22
 22 22 138 138 138 138 93 245 235 235 235 235 235 12 12 12 12 12 12 12
 104 104 54 54 54 59 59 22 22 22 22 22 138 138 138 138 245 235 235 235
 235 235 12 12 12 12 91 91 91 209 209 209 54 54 59 59 22 22 22 22
 22 138 138 138 138 245 235 235 235 235 235 12 12 12 12 91 91 91 209 209
 209 209 111 111 111 111 22 22 22 22 22 22 188 188 188 188 235 235 235 235
 12 12 12 12 12 12 209 209 209 209 209 111 111 111 111 28 28 28 28 28
 188 188 188 188 188 188 235 235 235 12 12 12 12 12 209 209 209 204 209 209
 111 111 111 28 28 28 28 28 28 188 188 188 188 188 188 188 232 232 232 232
 12 12 12 209 209 209 209 209 209 111 111 111 28 28 28 28 28 28 99 99
 99 99 99 99 99 232 232 232 232 232 64 64 64 209 209 209 209 209 111 111
 111 28 28 28 28 28 101 99 99 99 99 99 99 99 202 202 202 202 202 202
 64 64 209 209 209 209 209 111 111 111 28 28 28 171 171 101 99 99 99 99
 99 99 99 202 202 202 202 202 202 202 64 9 9 209 209 89 111 111 111 143
 171 171 171 171 101 99 99 99 99 99 99 99 202 202 202 202 202 202 202 9
 25 89 89 89 89 213 213 213 213 210 171 171 171 101 99 99 99 99 99 99
 99 202 202 202 202 202 195 195 195 25 89 89 89 89 213 213 213 213 213 171
 171 171 10 10 10 10 10 10 10 10 202 202 202 195 195 195 195 195 89 89
 89 89 89 213 213 213 213 213 213 171 10 10 10 10 10 10 10 10 10 128
 128 195 195 195 195 195 195 21 89 89 89 89 213 213 213 213 213 213 241 10
 10 10 10 10 10 10 10 10 128 128 195 195 195 195 195 21 21 21 89 89
 89 89 213 213 213 213 241 241 125 125 10 10 10 10 10 124 124 124 124 195
 195 195 195 195 21 21 21 21 89 89 89 213 213 213 213 241 241 125 125 125
 32 10 124 124 124 124 124 124 195 195 195 195 195 21 21 21 21 89 89 89
 213 213 213 241 241 125 125 125 125 125 32 124 124 124 124 124 124 124 13 13
 13 157 157 157 21 103 103 81 81 81 213 39 220 220 220 125 125 125 125 124
 124 124 124 124 124 124 115 115 13 157 157 157 157 157 103 103 193 193 193 193
 39 220 220 220 220 125 125 125 124 124 124 124 124 124 37 115 115 115 157 157
 157 157 157 103 103 193 193 193 193 39 220 220 220 220 220 125 125 236 236 236
 124 37 37 37 37 115 157 157 157 157 157 157 103 103 193 193 193 147 39 39
 220 220 220 220 220 236 236 236 236 236 37 37 37 37 37 17 17 172 172 172
 172 172 103 193 147 147 147 39 39 220 220 220 220 220 236 236 236 236 236 37
 37 37 37 37 17 17 17 172 172 172 197 197 147 147 147 147 146 146 220 220
 220 220 236 236 236 236 236 236 37 37 37 37 17 17 17 17 17 172 197 197
 11 11 147 147 147 146 146 220 220 220 220 236 236 236 236 236 236 37 37 208
 208 208 17 17 17 17 17 197 11 11 11 11 146 146 146 146 146 220 217 217
 48 48 48 48 48 236 208 208 208 208 208 208 96 96 96 96 96 11 11 11
 146 146 146 146 146 146 146 217 217 217 217 48 48 48 184 208 208 208 208 208
 208 96 96 96 96 96 11 11 11 146 146 146 146 146 146 138 138 217 217 217
 48 48 48 184 184 208 208 208 208 208 208 96 96 96 96 11 11 11 146 146
 146 146 146 22 138 138 217 217 217 48 48 184 184 184 208 208 208 208 208 12
 96 96 104 104 104 54 54 146 146 146 146 22 22 22 138 138 138 217 48 48
 184 245 235 235 208 208 12 12 12 12 104 104 104 104 104 54 146 146 146 22
 22 22 22 22 138 138 138 48 245 245 245 235 235 235 12 12 12 12 12 104
 104 104 104 104 54 54 59 59 22 22 22 22 22 22 138 138 245 245 245 245
 235 235 235 12 12 12 12 12 104 104 104 104 209 111 111 111 111 22 22 22
 22 22 22 138 138 245 245 245 235 235 235 235 12 12 12 12 12 12 104 209
 209 209 111 111 111 111 111 111 22 22 22 22 22 188 188 188 14 235 235 235
 235 12 12 12 12 12 12 209 209 209 209 111 111 111 111 111 111 28 28 22
 22 99 188 188 188 14 14 235 235 235 12 12 12 12 12 153 153 153 209 209
 111 111 111 111 111 28 28 28 28 28 99 188 188 188 188 99 14 14 14 12
 12 12 12 12 209 209 209 209 209 111 111 111 111 111 28 28 28 28 99 99
 99 99 99 99 99 99 14 202 202 202 202 12 64 209 209 209 209 209 111 111
 111 111 28 28 28 28 28 99 99 99 99 99 99 99 99 202 202 202 202 202
 202 64 25 209 209 209 209 111 111 111 111 210 210 28 171 171 101 99 99 99
 99 99 99 99 202 202 202 202 202 202 202 25 25 25 25 131 131 111 111 111
 210 210 210 171 171 99 99 99 99 99 99 99 99 202 202 202 202 202 202 202
 25 25 25 89 131 131 213 213 213 210 210 210 210 171 99 99 99 99 99 99
 99 99 202 202 202 202 202 195 195 25 25 89 89 131 131 213 213 213 213 210
 210 210 210 10 10 10 10 10 10 10 128 202 202 202 202 195 195 195 195 25
 89 89 89 131 213 213 213 213 210 210 210 210 10 10 10 10 10 10 10 128
 128 128 128 195 195 195 195 195 21 89 89 89 89 89 213 213 213 213 210 210
 125 10 10 10 10 10 10 10 128 128 128 128 195 195 195 195 21 21 33 89
 89 89 89 213 213 213 213 125 125 125 125 125 10 10 10 10 124 124 124 128
 128 195 195 195 195 21 21 33 33 89 89 89 213 213 213 213 125 125 125 125
 125 125 10 124 124 124 124 124 124 128 195 195 195 195 21 21 21 33 33 89
 89 213 213 213 125 125 125 125 125 125 125 125 124 124 124 124 124 124 115 115
 115 157 157 157 157 157 33 193 193 193 193 213 39 220 220 220 125 125 125 125
 125 124 124 124 124 124 115 115 115 115 157 157 157 157 157 103 193 193 193 193
 193 39 220 220 220 220 125 125 125 125 124 124 124 124 75 115 115 115 115 157
 157 157 157 157 103 193 193 193 193 193 39 39 220 220 220 220 220 78 236 236
 236 75 75 75 75 115 115 115 157 157 157 157 157 103 103 193 193 193 147 39
 39 220 220 220 220 220 236 236 236 236 75 75 75 75 75 115 17 17 17 172
 172 172 172 103 193 147 147 147 39 39 220 220 220 220 220 236 236 236 236 236
 75 75 75 75 17 17 17 17 17 172 172 172 172 147 147 147 147 147 220 220
 220 220 220 220 236 236 236 236 236 75 75 75 75 17 17 17 17 17 17 17
 197 147 147 147 147 147 146 146 220 220 220 220 220 236 236 236 236 236 75 208
 208 208 17 17 17 17 17 17 17 11 11 147 147 147 147 146 146 220 220 220
 217 48 48 48 48 48 48 208 208 208 208 208 17 17 17 17 17 17 11 11
 11 146 146 146 146 146 146 220 217 217 217 217 48 48 48 184 184 208 208 208
 208 208 17 17 17 17 17 187 11 11 146 146 146 146 146 146 217 217 217 217
 217 48 48 184 184 184 208 208 208 208 208 208 96 96 130 130 187 187 146 146
 146 146 146 146 146 217 217 217 217 217 48 48 184 184 184 208 208 208 208 208
 12 12 104 104 104 104 187 187 146 146 146 146 22 22 22 217 217 217 217 48
 184 184 245 245 235 208 208 12 12 12 12 104 104 104 104 104 187 146 146 146
 22 22 22 22 22 22 138 138 48 245 245 245 245 235 235 12 12 12 12 12
 104 104 104 104 104 104 111 111 146 22 22 22 22 22 22 138 138 245 245 245
 245 235 235 235 12 12 12 12 12 104 104 104 104 104 111 111 111 111 111 22
 22 22 22 22 138 245 245 245 245 245 235 235 235 12 12 12 12 12 104 104
 104 209 209 111 111 111 111 111 111 22 22 22 22 22 114 14 14 14 14 235
 235 235 12 12 12 12 12 104 153 153 153 153 111 111 111 111 111 111 28 28
 22 22 99 99 14 14 14 14 14 14 14 12 12 12 12 12 104 153 153 153
 153 111 111 111 111 111 111 28 28 28 28 99 99 14 14 14 14 14 14 14
 12 12 12 12 12 153 153 153 153 153 111 111 111 111 111 28 28 28 28 99
 99 99 99 99 14 14 14 14 186 202 202 202 12 25 153 153 153 153 153 111
 111 111 111 111 210 28 28 28 99 99 99 99 99 99 99 14 186 186 202 202
 202 202 25 25 25 153 153 153 111 183 183 183 210 210 210 210 135 99 99 99
 99 99 99 99 186 186 202 202 202 202 202 25 25 25 25 25 131 131 183 183
 183 210 210 210 210 135 135 99 99 99 99 99 99 99 202 202 202 202 202 202
 25 25 25 25 25 131 131 131 26 210 210 210 210 210 210 135 99 99 99 99
 99 99 99 202 202 202 202 202 36 25 25 25 25 131 131 131 131 26 26 210
 210 210 210 210 210 10 10 10 10 10 10 128 128 128 202 202 36 36 36 25
 25 25 131 131 131 131 26 26 26 210 210 210 210 211 211 10 10 10 10 10
 128 128 128 128 36 36 36 36 25 25 89 131 131 131 131 26 26 26 210 210
 210 87 211 211 211 10 10 10 128 128 128 128 128 36 36 36 36 21 33 33
 33 89 89 89 26 26 26 210 87 87 87 87 211 211 211 10 10 124 124 128
 128 128 128 36 36 36 21 33 33 33 33 89 89 26 26 26 87 87 87 87
 87 87 211 211 124 124 124 124 124 49 128 128 128 36 36 21 33 33 33 33
 89 89 26 26 39 87 87 87 125 125 125 87 211 124 124 124 124 124 124 115
 115 115 36 157 157 33 33 33 193 193 193 193 193 39 220 220 220 125 125 125
 87 87 124 124 124 124 124 115 115 115 115 157 157 157 157 157 193 193 193 193
 193 193 39 220 220 220 220 78 78 78 223 223 124 124 75 75 115 115 115 115
 157 157 157 157 157 157 193 193 193 193 193 39 39 220 220 220 78 78 78 223
 223 223 75 75 75 75 115 115 115 17 157 157 157 157 157 193 193 193 193 39
 39 39 220 220 220 220 78 78 223 223 236 75 75 75 75 75 17 17 17 17
 17 172 172 172 193 193 147 147 147 39 39 220 220 220 220 220 236 236 236 236
 75 75 75 75 75 17 17 17 17 17 17 17 172 193 147 147 147 147 147 39
 220 220 220 220 220 236 236 236 236 236 75 75 75 75 17 17 17 17 17 17
 17 17 147 147 147 147 147 147 4 220 220 220 220 220 236 236 236 236 236 75
 75 208 208 17 17 17 17 17 17 17 17 147 147 147 147 147 146 4 4 4
 220 217 217 48 48 48 48 48 184 208 208 208 208 17 17 17 17 17 17 187
 187 147 147 147 147 146 4 4 4 217 217 217 217 48 48 184 184 184 208 208
 208 208 208 17 17 17 17 187 187 187 187 187 146 146 146 4 4 217 217 217
 217 217 217 184 184 184 184 80 80 208 208 208 208 17 130 130 130 187 187 187
 187 146 146 146 4 4 217 217 217 217 217 217 184 184 184 184 80 80 80 208
 208 12 130 130 130 130 187 187 187 187 187 146 146 22 22 22 217 217 217 217
 217 184 184 245 80 80 80 80 12 12 12 130 130 130 104 104 104 187 187 187
 146 111 22 22 22 22 217 217 217 217 245 245 245 245 235 80 12 12 12 12
 12 104 104 104 104 104 104 111 111 111 111 22 22 22 22 22 138 217 245 245
 245 245 245 235 235 12 12 12 12 104 104 104 104 104 104 104 111 111 111 111
 111 22 22 22 22 22 114 245 245 245 245 235 235 235 12 12 12 12 104 104
 104 104 153 153 111 111 111 111 111 111 111 22 22 22 114 114 14 14 14 14
 14 235 235 12 12 12 12 12 104 104 153 153 153 111 111 111 111 111 111 111
 28 22 122 122 122 14 14 14 14 14 14 14 12 212 212 212 12 104 153 153
 153 153 111 111 111 111 111 111 28 28 28 122 122 122 14 14 14 14 14 14
 14 212 212 212 212 212 153 153 153 153 153 111 111 111 111 183 183 183 135 135
 122 122 99 99 14 14 14 14 14 186 186 212 212 212 25 25 153 153 153 153
 183 183 183 183 183 210 210 135 135 135 99 99 99 99 14 14 14 186 186 202
 202 202 25 25 25 25 25 153 153 183 183 183 183 210 210 210 135 135 135 99
 99 99 99 99 119 186 186 186 202 202 202 25 25 25 25 25 25 25 183 183
 183 183 210 210 210 135 135 135 135 99 99 99 99 119 186 186 202 202 202 202
 202 25 25 25 25 25 131 131 26 26 210 210 210 210 135 135 135 135 99 99
 99 99 119 128 128 128 202 202 128 36 25 25 25 25 25 131 131 26 26 26
 210 210 210 210 135 135 211 10 10 10 10 128 128 128 128 128 128 36 36 25
 25 25 25 131 131 131 26 26 26 26 210 210 210 210 211 211 211 211 10 10
 128 128 128 128 128 128 36 36 36 25 25 25 131 131 131 26 26 26 26 210
 210 210 87 211 211 211 211 211 10 128 128 128 128 128 128 36 36 36 25 25
 33 33 131 131 26 26 26 26 210 87 87 87 87 211 211 211 211 10 124 49
 49 49 128 128 128 128 36 33 33 33 33 33 26 26 26 26 26 87 87 87
 87 87 87 211 211 211 124 124 49 49 49 49 128 128 128 36 33 33 33 33
 33 26 26 26 26 87 87 87 87 87 87 87 87 211 211 124 124 49 49 49
 49 128 233 233 157 157 33 33 33 193 193 193 26 26 39 220 220 87 87 87
 87 87 87 87 124 124 124 124 115 115 115 233 233 157 157 157 30 193 193 193
 193 193 193 39 220 220 220 78 78 78 78 223 223 223 124 75 75 115 115 115
 233 233 157 157 157 30 30 193 193 193 193 193 39 39 220 220 220 78 78 78
 223 223 223 75 75 75 75 115 233 233 233 17 157 157 30 30 193 193 193 193
 39 39 39 220 220 220 78 78 223 223 223 223 75 75 75 75 75 233 233 17
 17 17 17 30 30 30 193 147 147 39 39 39 220 220 220 220 220 223 223 223
 223 75 75 75 75 75 17 17 17 17 17 17 17 30 30 147 147 147 147 147
 220 220 220 220 220 220 223 223 223 223 75 75 75 75 75 17 17 17 17 17
 17 17 17 147 147 147 147 147 4 4 4 220 220 220 220 223 223 236 236 62
 62 62 62 17 17 17 17 17 17 17 145 145 145 147 147 147 147 4 4 4
 4 220 220 217 106 48 48 48 184 62 62 208 208 17 17 17 17 17 17 145
 145 187 187 147 147 147 4 4 4 4 4 217 217 217 132 184 184 184 184 80
 80 80 208 208 17 17 17 17 145 187 187 187 187 187 4 4 4 4 4 217
 217 217 217 132 184 184 184 184 80 80 80 208 208 17 130 130 130 130 187 187
 187 187 187 146 4 4 4 4 217 217 217 217 132 184 184 184 80 80 80 80
 80 208 130 130 130 130 130 187 187 187 187 187 187 4 4 166 22 217 217 217
 217 217 184 184 70 80 80 80 80 80 12 12 130 130 130 130 130 187 187 187
 187 187 111 166 166 22 166 217 217 217 114 70 70 245 70 80 80 80 12 12
 12 130 130 130 130 130 104 187 187 187 111 111 22 22 22 22 22 114 114 114
 245 245 245 245 235 235 12 12 12 12 104 104 104 104 104 104 111 111 111 111
 111 111 22 22 22 22 114 114 114 245 245 245 235 235 235 12 12 12 12 104
 104 104 104 104 153 111 111 111 111 111 111 166 166 166 166 114 114 114 14 14
 14 14 14 14 212 212 212 212 212 104 104 153 153 153 111 111 111 111 183 183
 183 166 166 122 122 122 14 14 14 14 14 14 14 212 212 212 212 212 104 153
 153 153 153 183 183 183 183 183 183 183 183 122 122 122 122 14 14 14 14 14
 14 14 212 212 212 212 212 212 153 153 153 153 183 183 183 183 183 183 183 135
 135 122 122 122 14 14 14 14 14 14 186 186 212 212 212 212 25 25 25 153
 183 183 183 183 183 183 183 135 135 135 135 122 122 14 14 14 14 14 186 186
 186 186 212 25 25 25 25 25 25 183 183 183 183 183 210 210 135 135 135 135
 135 99 119 119 119 119 186 186 186 186 202 128 25 25 25 25 25 25 25 183
 183 183 183 210 210 135 135 135 135 135 99 119 119 119 119 186 186 186 128 128
 128 128 25 25 25 25 25 25 183 183 183 210 210 210 210 135 135 135 248 248
 248 119 119 119 119 186 128 128 128 128 128 25 25 25 25 25 25 131 26 26
 26 210 210 210 135 135 135 248 248 248 119 119 119 128 128 128 128 128 128 128
 25 25 25 25 25 131 26 26 26 26 26 210 210 210 135 211 211 211 211 211
 119 128 128 128 128 128 128 128 128 128 25 25 25 25 131 26 26 26 26 26
 210 210 210 87 211 211 211 211 211 211 128 128 128 128 128 128 128 128 128 25
 25 33 33 131 26 26 26 26 26 210 87 87 87 87 211 211 211 211 211 49
 49 49 49 128 128 128 128 128 25 33 33 33 33 26 26 26 26 26 87 87
 87 87 87 87 211 211 211 211 49 49 49 49 49 128 128 128 128 25 33 33
 33 33 26 26 26 26 26 87 87 87 87 87 87 87 211 211 69 49 49 49
 49 49 233 233 233 233 179 33 33 33 193 193 26 26 26 87 87 87 87 87
 87 87 87 87 87 223 90 90 90 90 233 233 233 233 233 157 30 30 30 193
 193 193 193 193 39 220 220 78 78 78 78 78 223 223 223 90 90 90 90 233
 233 233 233 233 157 30 30 30 30 193 193 193 193 39 220 220 220 78 78 78
 78 223 223 223 223 90 90 90 233 233 233 233 233 157 30 30 30 30 30 127
 127 39 39 220 220 220 220 78 78 223 223 223 223 223 75 75 90 233 233 233