# vtk DataFile Version 2.0
Data set from ImportExport Version 6.5.171.b0b162591
ASCII

DATASET RECTILINEAR_GRID
DIMENSIONS 30 30 30
X_COORDINATES 30 float
-1.250000 1.250000 3.750000 6.250000 8.750000 11.250000 13.750000 16.250000 18.750000 21.250000 23.750000 26.250000 28.750000 31.250000 33.750000 36.250000 38.750000 41.250000 43.750000 46.250000 48.750000 
51.250000 53.750000 56.250000 58.750000 61.250000 63.750000 66.250000 68.750000 71.250000 
Y_COORDINATES 30 float
-1.250000 1.250000 3.750000 6.250000 8.750000 11.250000 13.750000 16.250000 18.750000 21.250000 23.750000 26.250000 28.750000 31.250000 33.750000 36.250000 38.750000 41.250000 43.750000 46.250000 48.750000 
51.250000 53.750000 56.250000 58.750000 61.250000 63.750000 66.250000 68.750000 71.250000 
Z_COORDINATES 30 float
-1.250000 1.250000 3.750000 6.250000 8.750000 11.250000 13.750000 16.250000 18.750000 21.250000 23.750000 26.250000 28.750000 31.250000 33.750000 36.250000 38.750000 41.250000 43.750000 46.250000 48.750000 
51.250000 53.750000 56.250000 58.750000 61.250000 63.750000 66.250000 68.750000 71.250000 
CELL_DATA 24389
SCALARS FeatureIds int 1
LOOKUP_TABLE default
 186 186 186 186 186 186 186 69 69 69 69 69 69 69 95 95 95 95 95 95
 95 95 21 21 21 21 21 220 220 186 186 186 186 186 186 186 69 69 69 69
 69 69 69 95 95 95 95 95 95 95 95 21 21 21 21 21 220 220 220 198
 116 116 116 116 116 69 69 69 69 69 121 121 95 95 95 95 95 95 95 95
 21 21 21 21 21 220 220 198 198 116 116 116 116 116 69 69 69 69 121 121
 121 95 95 95 95 95 95 95 95 21 21 21 21 220 220 220 198 116 116 116
 116 116 116 116 69 69 69 121 121 68 68 95 95 95 95 95 95 21 21 21
 21 21 21 220 220 198 116 116 116 116 116 116 184 184 184 184 121 68 68 68
 68 95 95 95 209 209 4 4 4 4 4 4 4 220 198 116 116 116 116 116
 184 184 184 184 184 184 68 68 68 68 95 209 209 209 209 209 4 4 4 4
 4 4 4 84 116 116 116 116 184 184 184 184 184 184 184 68 68 68 68 209
 209 209 209 209 209 209 4 4 4 4 4 4 84 84 84 84 34 34 184 184
 184 184 184 184 184 68 68 68 209 209 209 209 209 209 209 17 17 17 17 17
 17 84 84 84 84 34 34 184 184 184 184 184 184 184 184 68 68 209 209 209
 209 209 75 75 17 17 17 17 17 17 84 84 84 84 34 12 12 184 184 184
 184 184 184 184 39 39 39 213 75 75 75 75 75 17 17 17 17 17 17 84
 84 84 84 12 12 12 12 184 184 184 226 226 226 39 39 39 213 75 75 75
 75 75 194 17 17 17 17 17 84 84 84 12 12 12 12 12 226 226 226 226
 226 226 39 39 39 39 75 75 75 75 75 194 194 17 17 17 84 84 84 84
 12 12 12 12 12 226 226 226 226 226 226 39 39 39 39 75 75 75 75 75
 194 194 194 194 17 84 99 99 99 12 12 12 12 238 226 226 226 226 226 226
 39 39 39 39 39 75 75 75 75 194 194 194 194 194 66 99 99 99 12 12
 12 238 238 238 226 226 226 226 39 39 39 39 39 39 75 75 75 75 194 194
 194 66 66 66 66 99 5 5 5 5 5 238 102 102 102 226 131 131 39 39
 39 39 39 75 75 75 75 194 194 66 66 66 66 66 66 5 5 5 5 5
 102 102 102 102 102 131 131 131 39 39 39 219 219 219 75 190 15 15 15 66
 66 66 66 66 5 5 5 5 5 102 102 102 102 102 131 131 131 39 39 219
 219 219 219 219 15 15 15 15 66 66 66 66 66 227 227 227 227 227 102 102
 102 102 102 131 131 131 131 219 219 219 219 219 219 15 15 15 15 66 66 66
 66 27 27 27 227 227 227 227 102 102 102 102 131 131 131 46 46 219 219 219
 219 219 223 223 223 223 223 66 66 66 27 27 27 227 227 227 227 102 102 102
 102 131 131 46 46 46 46 46 46 46 46 223 223 223 223 223 223 66 106 27
 27 27 227 227 227 227 80 80 80 80 80 80 46 46 46 46 46 46 46 60
 223 223 223 223 223 223 223 106 106 106 106 189 189 189 189 80 80 80 80 80
 80 23 23 46 46 46 46 60 60 60 223 223 223 223 223 223 106 106 106 106
 189 189 189 189 80 80 80 80 80 80 23 23 23 23 46 137 60 60 60 60
 28 28 28 28 37 106 106 106 106 189 189 189 189 80 80 80 80 80 80 23
 23 23 23 137 137 60 60 60 60 28 28 28 28 37 106 106 106 189 189 189
 189 189 80 80 80 80 80 80 23 23 23 23 137 137 60 60 60 60 28 28
 28 28 37 106 106 106 189 189 189 189 189 69 80 80 80 80 80 23 23 23
 95 95 137 60 60 60 28 28 28 28 28 37 106 106 186 186 186 186 189 69
 69 69 69 69 80 80 23 95 95 95 95 95 95 60 60 28 28 28 28 28
 37 186 186 186 186 186 186 186 69 69 69 69 69 69 69 95 95 95 95 95
 95 95 95 55 21 21 21 21 220 220 186 186 186 186 186 186 186 69 69 69
 69 69 69 69 95 95 95 95 95 95 95 95 55 21 21 21 21 220 220 220
 116 116 116 116 116 116 69 69 69 69 69 69 69 95 95 95 95 95 95 95
 139 55 55 21 21 21 220 220 198 116 116 116 116 116 116 69 69 69 69 69
 121 121 95 95 95 95 95 95 139 139 55 55 21 21 21 220 220 198 116 116
 116 116 116 116 116 69 69 69 121 121 68 68 95 95 95 95 209 139 55 55
 55 55 21 21 220 220 116 116 116 116 116 116 116 184 184 184 184 121 68 68
 68 68 95 209 209 209 209 149 149 149 149 4 4 4 220 116 116 116 116 116
 116 184 184 184 184 184 184 68 68 68 68 209 209 209 209 209 209 149 149 149
 4 4 4 4 84 116 116 116 116 34 184 184 184 184 184 184 184 68 68 68
 209 209 209 209 209 209 209 149 149 4 4 4 4 84 84 84 84 34 34 34
 184 184 184 184 184 184 184 68 209 209 209 209 209 209 209 209 149 17 17 17
 17 84 84 84 84 84 34 34 34 184 184 184 184 184 184 184 184 213 209 209
 209 209 209 75 75 75 17 17 17 17 84 84 84 84 84 34 34 34 34 184
 184 184 184 184 184 213 213 213 213 209 209 75 75 75 75 17 17 17 17 84
 84 84 84 84 12 12 34 34 34 184 184 184 226 226 213 213 213 213 225 75
 75 75 75 194 17 17 17 17 84 84 84 84 84 12 12 12 12 226 226 226
 226 226 226 213 213 213 213 225 75 75 75 75 194 194 17 17 17 84 84 84
 84 12 12 12 12 12 226 226 226 226 226 226 39 39 39 39 225 75 75 75
 194 194 194 194 194 17 84 99 99 99 12 12 12 12 12 226 226 226 226 226
 39 39 39 39 39 225 75 75 75 75 194 194 194 194 17 84 99 99 99 99
 12 5 5 5 226 226 226 226 226 39 39 39 39 39 225 75 75 75 75 194
 194 194 194 66 66 99 99 99 5 5 5 5 5 102 226 226 226 226 39 39
 39 39 39 39 75 75 75 190 190 190 190 66 66 66 66 99 5 5 5 5
 5 5 102 102 102 102 131 131 39 39 39 39 39 75 75 190 190 190 190 15
 66 66 66 66 66 5 5 5 5 5 5 102 102 102 102 131 131 131 39 39
 219 219 219 219 190 190 190 15 15 15 66 66 66 66 5 5 5 5 5 5
 102 102 102 102 131 131 131 131 219 219 219 219 219 190 190 15 15 15 15 66
 66 66 66 27 27 227 227 227 227 102 102 102 102 131 131 131 46 46 46 46
 46 219 219 223 223 223 223 223 223 66 66 27 27 27 227 227 227 227 102 102
 102 80 80 46 46 46 46 46 46 46 46 46 223 223 223 223 223 223 66 37
 37 37 27 227 227 227 227 80 80 80 80 80 46 46 46 46 46 46 46 46
 46 223 223 223 223 223 223 223 37 37 37 37 189 189 189 80 80 80 80 80
 80 80 23 46 46 46 46 46 46 60 60 28 223 223 223 223 223 37 37 37
 37 189 189 189 189 80 80 80 80 80 80 23 23 23 46 46 46 60 60 60
 28 28 28 28 28 37 37 37 37 37 189 189 189 80 80 80 80 80 80 80
 23 23 23 23 46 137 60 60 60 28 28 28 28 28 37 37 37 37 37 189
 189 189 80 80 80 80 80 80 80 23 23 23 23 23 137 60 60 60 28 28
 28 28 28 37 37 37 37 37 186 189 189 80 80 80 80 80 80 80 23 23
 23 23 23 137 60 60 28 28 28 28 28 28 37 37 37 186 186 186 186 186
 69 69 69 69 69 80 80 23 95 95 95 95 95 95 60 28 28 28 28 28
 28 37 186 186 186 186 186 186 186 69 69 69 69 69 69 69 69 95 95 95
 95 139 139 139 55 55 55 55 55 220 220 186 186 186 186 186 186 186 69 69
 69 69 69 69 69 95 95 95 95 139 139 139 139 55 55 55 55 55 220 220
 116 116 116 116 116 116 116 101 69 69 69 69 69 69 126 95 95 139 139 139
 139 139 55 55 55 55 55 220 220 116 116 116 116 116 116 116 101 6 69 69
 69 69 126 126 126 95 139 139 139 139 139 55 55 55 55 55 220 220 116 116
 116 116 116 116 116 6 6 6 6 6 121 126 126 126 126 139 139 139 139 55
 55 55 55 55 55 220 220 116 116 116 116 116 116 116 184 184 184 184 184 68
 68 126 126 209 209 209 209 209 2 149 149 149 55 55 55 220 116 116 116 116
 116 116 184 184 184 184 184 184 184 68 68 209 209 209 209 209 209 209 149 149
 149 55 55 4 4 84 84 84 116 34 34 184 184 184 184 184 184 184 125 125
 209 209 209 209 209 209 209 149 149 149 55 17 4 84 84 84 84 84 34 34
 34 184 184 184 184 184 125 125 125 209 209 209 209 209 209 209 209 149 149 17
 17 17 84 84 84 84 84 34 34 34 34 184 184 184 184 125 125 125 213 209
 209 209 209 209 209 209 17 17 17 17 17 84 84 84 84 84 34 34 34 34
 34 184 184 184 125 125 213 213 213 213 209 209 75 75 75 17 17 17 17 17
 84 84 84 84 84 34 34 34 34 34 97 184 184 125 110 213 213 213 213 225
 225 75 75 75 194 17 17 17 17 84 84 84 84 84 12 12 12 34 97 97
 97 226 226 110 213 213 213 213 225 225 75 75 75 194 194 17 17 17 84 84
 84 84 84 12 12 12 12 97 97 97 226 226 110 213 213 213 213 225 225 75
 75 194 194 194 194 194 84 84 99 99 99 84 12 12 12 12 97 97 226 226
 226 213 213 213 213 213 225 225 75 75 75 194 194 194 194 84 84 99 99 99
 99 12 5 5 5 226 226 226 226 226 39 39 39 39 39 225 225 75 75 75
 190 190 194 194 66 99 99 99 99 5 5 5 5 5 31 226 226 226 226 39
 39 39 39 39 225 225 75 190 190 190 190 190 190 66 66 99 99 99 5 5
 5 5 5 31 31 31 31 31 39 39 39 39 39 225 225 190 190 190 190 190
 190 15 24 24 24 99 5 5 5 5 5 5 31 31 31 31 31 39 39 39
 39 39 219 219 190 190 190 190 190 15 15 24 24 24 24 5 5 5 5 5
 5 31 31 31 31 131 131 131 39 46 46 46 46 190 190 190 190 15 15 15
 24 24 24 24 27 5 5 5 5 5 31 31 31 31 131 131 46 46 46 46
 46 46 46 190 190 223 223 223 223 24 24 24 37 27 27 195 195 195 195 222
 222 80 80 80 46 46 46 46 46 46 46 46 46 223 223 223 223 223 223 24
 37 37 37 37 195 195 195 195 222 222 80 80 80 46 46 46 46 46 46 46
 46 46 223 223 223 223 223 223 223 37 37 37 37 195 195 195 195 222 80 80
 80 80 80 46 46 46 46 46 46 46 60 28 28 28 28 223 223 37 37 37
 37 37 37 195 195 195 80 80 80 80 80 80 23 23 46 46 46 46 60 60
 60 28 28 28 28 28 37 37 37 37 37 37 195 195 80 80 80 80 80 80
 80 23 23 23 46 46 46 60 60 28 28 28 28 28 28 37 37 37 37 37
 37 242 242 80 80 80 80 80 80 80 23 23 23 23 46 46 60 60 28 28
 28 28 28 28 37 37 37 37 37 37 242 242 242 80 80 80 80 80 10 23
 23 23 23 46 46 60 28 28 28 28 28 28 28 37 37 37 37 186 186 186
 242 69 69 69 69 69 80 10 23 23 23 95 95 95 72 28 28 28 28 28
 28 28 37 88 88 88 88 186 186 101 101 101 69 69 69 69 10 10 126 126
 139 139 139 139 139 72 55 55 90 90 90 220 88 88 88 186 116 101 101 101
 101 69 69 69 69 10 126 126 126 139 139 139 139 139 55 55 55 55 55 55
 220 116 116 116 116 116 116 101 101 101 6 6 69 69 126 126 126 126 139 139
 139 139 139 55 55 55 55 55 55 220 116 116 116 116 116 116 101 101 6 6
 6 6 126 126 126 126 126 139 139 139 139 139 55 55 55 55 55 55 220 116
 116 116 116 116 116 116 6 6 6 6 6 126 126 126 126 126 139 139 139 139
 2 55 55 55 55 55 55 55 43 116 116 116 116 116 236 6 6 6 6 6
 125 126 126 126 126 139 139 209 2 2 149 149 149 55 55 55 55 43 43 116
 116 116 34 34 184 184 184 184 125 125 125 126 126 209 209 209 209 209 2 149
 149 149 55 55 55 43 84 84 84 84 34 34 34 184 184 184 184 125 125 125
 125 209 209 209 209 209 209 209 2 149 149 55 55 3 84 84 84 84 84 34
 34 34 34 184 184 184 125 125 125 125 125 209 209 209 209 209 209 2 149 149
 3 3 3 84 84 84 84 84 34 34 34 34 34 184 125 125 125 125 125 213
 209 209 209 209 209 209 2 3 3 3 3 84 84 84 84 84 84 34 34 34
 34 34 184 125 125 125 125 213 213 213 209 209 209 209 75 75 194 17 3 3
 84 84 84 84 84 84 34 34 34 34 34 97 125 125 125 110 213 213 213 213
 225 225 225 75 75 194 17 17 17 84 84 84 84 84 84 34 34 34 34 97
 97 97 97 110 110 110 213 213 213 225 225 225 75 194 194 194 17 17 84 84
 84 84 84 84 12 12 12 97 97 97 97 97 110 110 110 213 213 213 225 225
 225 75 194 194 194 194 194 84 84 99 99 99 99 12 12 12 97 97 97 97
 226 110 110 213 213 213 213 225 225 225 75 75 194 194 194 194 84 84 99 99
 99 99 12 5 133 133 207 207 226 226 226 213 213 213 213 213 225 225 225 75
 190 190 190 190 190 99 99 99 99 99 99 5 5 133 133 31 31 31 31 31
 39 39 39 39 39 225 225 212 190 190 190 190 190 190 24 99 99 99 99 5
 5 5 133 133 31 31 31 31 31 39 39 39 39 63 63 212 212 190 190 190
 190 190 24 24 24 24 99 99 5 5 133 133 133 31 31 31 31 31 31 39
 39 39 63 46 212 212 190 190 190 190 190 24 24 24 24 24 24 5 5 133
 133 133 31 31 31 31 31 31 46 46 46 46 46 46 46 190 190 190 190 24
 24 24 24 24 24 24 5 5 133 133 133 31 31 31 31 31 46 46 46 46
 46 46 46 46 190 190 223 223 223 24 24 24 24 24 37 195 195 195 195 195
 222 222 222 222 80 46 46 46 46 46 46 46 46 159 159 159 223 223 223 24
 24 37 37 37 195 195 195 195 195 222 222 222 222 80 46 46 46 46 46 46
 46 46 159 159 159 159 223 223 223 24 37 37 37 37 195 195 195 195 222 222
 222 80 80 46 46 46 46 46 46 46 46 159 159 159 28 28 223 37 37 37
 37 37 37 195 195 195 13 13 13 13 80 80 46 46 46 46 46 46 46 46
 28 28 28 28 28 28 37 37 37 37 37 37 37 195 195 13 13 13 80 80
 80 23 23 23 46 46 46 46 46 28 28 28 28 28 28 37 37 37 37 37
 37 37 242 242 242 13 13 80 80 10 10 23 23 23 46 46 46 46 28 28
 28 28 28 28 28 37 37 37 37 37 37 242 242 242 242 80 80 80 10 10
 10 23 23 46 46 72 72 28 28 28 28 28 28 28 37 88 88 88 88 186
 242 242 242 69 69 69 69 10 10 10 10 23 95 95 72 72 72 28 28 28
 28 28 28 37 88 88 88 88 19 19 101 101 101 101 69 69 10 10 10 10
 126 139 139 139 139 72 72 90 90 90 90 90 90 88 88 88 88 19 101 101
 101 101 101 6 6 10 126 126 126 126 139 139 139 139 139 55 55 90 90 90
 90 90 88 88 88 88 116 101 101 101 101 6 6 6 6 126 126 126 126 139
 139 139 139 139 55 55 55 55 55 55 55 116 116 116 116 116 101 101 101 6
 6 6 6 6 126 126 126 126 139 139 139 139 139 55 55 55 55 55 55 55
 43 43 43 116 116 236 101 6 6 6 6 6 6 126 126 126 126 139 139 139
 139 2 55 55 55 55 55 55 43 43 43 43 43 236 236 236 6 6 6 6
 6 6 126 126 126 126 139 139 139 2 2 2 55 55 55 55 55 43 43 43
 43 43 236 236 236 6 6 6 6 125 125 125 126 126 126 209 209 209 2 2
 2 149 149 55 55 55 43 43 43 43 43 34 34 34 34 184 125 125 125 125
 125 125 126 209 209 209 209 209 2 2 149 149 3 3 3 43 84 84 84 84
 34 34 34 34 34 125 125 125 125 125 125 125 209 209 209 209 209 209 2 149
 3 3 3 3 3 84 84 84 84 34 34 34 34 34 125 125 125 125 125 125
 213 209 209 209 209 209 209 3 3 3 3 3 3 84 84 84 84 84 34 34
 34 34 34 125 125 125 125 125 125 213 213 130 209 209 209 209 75 3 3 3
 3 3 84 84 84 84 84 34 34 34 34 34 125 125 125 125 110 110 213 213
 213 225 225 225 225 75 194 3 3 3 84 84 84 84 84 84 34 34 34 34
 97 97 97 125 110 110 110 213 213 213 225 225 225 225 194 194 194 3 3 84
 84 84 84 84 84 12 12 12 97 97 97 97 97 110 110 110 213 213 213 225
 225 225 225 194 194 194 194 53 84 84 99 99 99 84 12 12 133 97 97 97
 97 226 110 110 213 213 213 229 225 225 225 225 75 194 194 194 53 84 84 99
 99 99 99 133 133 133 133 207 207 207 207 110 213 213 213 213 213 225 225 225
 225 190 190 190 190 190 99 99 99 99 99 99 133 133 133 133 31 207 31 31
 31 213 213 39 213 63 225 212 212 212 190 190 190 190 190 24 99 99 99 99
 133 133 133 133 133 31 31 31 31 31 31 63 63 63 63 63 212 212 212 190
 190 190 190 24 24 24 24 24 99 133 133 133 133 133 31 31 31 31 31 31
 63 63 63 63 63 212 212 212 190 190 190 190 24 24 24 24 24 24 133 133
 133 133 133 133 31 31 31 31 31 82 63 63 63 63 212 212 212 190 190 190
 24 24 24 24 24 24 24 195 195 133 133 133 133 31 31 31 31 82 82 82
 46 46 46 46 46 159 190 190 223 24 24 24 24 24 24 195 195 195 195 195
 195 222 222 222 222 222 46 46 46 46 46 46 46 46 159 159 159 159 159 24
 24 24 37 37 195 195 195 195 195 195 222 222 222 222 222 46 46 46 46 46
 46 46 46 159 159 159 159 159 223 24 37 37 37 37 195 195 195 195 195 222
 222 222 222 222 46 46 46 46 46 46 46 46 159 159 159 159 159 159 37 37
 37 37 37 37 195 195 195 13 13 13 13 13 80 46 46 46 46 46 46 46
 46 159 159 159 159 159 28 37 37 37 37 37 37 195 195 195 13 13 13 13
 13 10 10 46 46 46 46 46 46 46 159 159 28 28 28 28 37 37 37 37
 37 37 195 242 242 242 13 13 13 13 10 10 10 10 46 46 46 46 72 72
 28 28 28 28 28 37 37 37 37 37 88 19 242 242 242 242 13 13 10 10
 10 10 10 46 46 46 72 72 72 72 28 28 28 28 28 37 88 88 88 88
 19 19 242 242 242 242 69 10 10 10 10 10 10 46 72 72 72 72 72 72
 28 28 90 90 37 88 88 88 88 19 19 101 101 101 101 101 10 10 10 10
 10 126 139 139 139 72 72 72 90 90 90 90 90 90 88 88 88 88 19 19
 101 101 101 101 6 6 10 126 126 126 126 139 139 139 139 139 72 90 90 90
 90 90 90 88 88 88 88 19 101 101 101 101 6 6 6 6 126 126 126 126
 139 139 139 139 139 55 55 90 90 90 90 90 88 88 88 116 116 101 101 101
 6 6 6 6 6 126 126 126 126 139 139 139 139 139 55 55 55 55 55 55
 43 43 43 43 43 236 236 236 6 6 6 6 6 6 126 126 126 126 139 139
 139 139 2 55 55 55 55 55 55 43 43 43 43 43 236 236 236 6 6 6
 6 6 6 126 126 126 126 139 139 139 2 2 2 55 55 55 55 43 43 43
 43 43 43 236 236 236 6 6 6 125 125 125 125 126 126 126 139 111 111 2
 2 2 55 55 55 55 43 43 43 43 43 43 200 236 34 34 125 125 125 125
 125 125 125 126 111 111 111 111 111 2 2 149 3 3 3 3 43 43 43 200
 200 200 34 34 34 125 125 125 125 125 125 125 125 111 111 111 111 111 111 2
 3 3 3 3 3 3 84 84 200 200 200 34 34 34 125 125 125 125 125 125
 125 125 130 62 62 111 111 111 3 3 3 3 3 3 3 84 84 84 200 200
 34 34 34 34 125 125 125 125 125 125 130 130 130 130 111 111 62 3 3 3
 3 3 3 84 84 84 84 84 34 34 34 34 34 125 125 125 125 125 110 229
 229 130 130 225 225 225 53 53 3 3 3 3 84 84 84 84 84 34 34 34
 34 97 97 125 125 125 110 110 229 229 229 229 225 225 225 53 53 53 53 53
 53 84 84 84 84 84 233 34 34 34 97 97 97 125 110 110 110 229 229 229
 229 225 225 225 53 53 53 53 53 53 84 99 99 99 84 133 133 133 133 97
 97 97 207 110 110 110 229 229 229 229 225 225 225 75 53 53 53 53 132 132
 99 99 99 99 133 133 133 133 207 207 207 207 207 213 213 229 229 229 229 225
 225 212 212 190 78 78 78 132 132 99 99 99 133 133 133 133 133 31 207 207
 31 31 213 63 63 63 63 63 63 212 212 212 190 78 78 78 78 132 99 99
 99 133 133 133 133 133 31 31 31 31 31 31 63 63 63 63 63 212 212 212
 212 190 78 78 78 78 78 24 24 133 133 133 133 133 133 207 207 31 31 31
 31 63 63 63 63 63 212 212 212 212 190 78 78 78 24 24 24 24 133 133
 133 133 133 133 133 207 207 31 31 82 82 63 63 63 63 71 71 71 71 190
 78 78 24 24 24 24 24 24 133 133 133 133 133 133 207 207 31 31 82 82
 82 82 82 63 71 71 71 71 71 78 78 24 24 24 24 37 195 195 195 195
 195 195 222 222 222 222 67 82 82 82 82 46 169 169 169 113 159 159 159 159
 24 24 24 37 37 195 195 195 195 195 195 222 222 222 222 67 67 82 82 46
 46 46 169 169 159 159 159 159 159 159 24 37 37 37 37 195 195 195 195 8
 222 222 222 222 67 67 67 46 46 46 46 169 169 159 159 159 159 159 159 37
 37 37 37 37 195 195 195 195 8 13 13 13 13 67 67 46 46 46 46 46
 169 169 159 159 159 159 159 159 37 37 37 37 37 37 195 195 195 13 13 13
 13 13 10 10 10 46 46 46 46 169 169 159 159 159 159 159 159 37 37 37
 37 37 37 195 242 242 242 13 13 13 13 10 10 10 10 46 46 46 169 72
 72 72 72 28 28 28 37 37 183 183 183 88 19 19 242 242 242 13 13 10
 10 10 10 10 46 46 46 72 72 72 72 72 28 28 90 183 183 88 88 88
 88 19 19 242 242 242 242 13 10 10 10 10 10 10 46 72 72 72 72 72
 72 90 90 90 90 183 88 88 88 88 19 19 19 101 101 101 101 10 10 10
 10 10 126 139 139 139 72 72 72 90 90 90 90 90 90 88 88 88 88 19
 19 101 101 101 101 6 6 10 126 126 126 126 139 139 139 139 139 52 90 90
 90 90 90 90 88 88 88 88 19 101 101 101 101 6 6 6 6 126 126 126
 126 139 139 139 139 139 139 90 90 90 90 90 90 43 88 88 88 236 101 101
 101 6 6 6 6 6 126 126 126 126 139 139 139 139 139 55 55 90 90 90
 90 43 43 43 43 43 236 236 236 6 6 6 6 6 6 126 126 126 126 139
 139 139 139 105 105 55 55 55 153 153 43 43 43 43 43 236 236 236 236 6
 6 6 6 6 126 126 126 126 139 139 139 105 105 105 105 55 55 153 153 43
 43 43 43 43 236 236 236 236 6 6 125 125 125 56 126 126 126 139 111 111
 105 105 105 105 55 55 153 43 43 43 43 43 200 200 236 236 236 125 125 125
 125 125 56 56 62 62 62 111 111 111 105 105 105 3 3 3 43 43 43 43
 200 200 200 200 34 34 125 125 125 125 125 125 125 62 62 62 62 62 62 62
 105 3 3 3 3 3 43 84 200 200 200 200 200 34 34 125 125 125 125 125
 125 125 130 130 62 62 62 62 62 62 3 3 3 3 3 3 84 233 200 200
 200 200 34 34 34 125 125 125 125 125 125 130 130 130 130 62 62 62 62 3
 3 3 3 3 84 84 233 233 233 233 233 34 34 56 56 56 56 125 125 229
 229 130 130 130 130 62 62 53 53 53 53 3 3 84 84 233 233 233 233 233
 34 34 56 56 56 125 125 110 229 229 229 229 229 229 229 229 53 53 53 53
 53 53 84 84 233 233 233 233 233 34 34 97 97 97 125 110 110 229 229 229
 229 229 229 229 229 53 53 53 53 53 53 53 197 99 233 233 233 133 133 133
 31 31 31 31 110 110 229 229 229 229 229 229 229 229 53 53 53 53 53 132
 132 99 99 99 197 133 133 133 133 31 31 31 31 31 213 229 229 229 229 229
 229 229 212 212 78 78 78 132 132 132 197 197 197 133 133 133 133 133 31 31
 31 31 31 31 63 63 63 63 63 63 212 212 212 78 78 78 78 132 132 132
 197 197 133 133 133 133 133 31 31 31 31 31 31 63 63 63 63 63 63 212
 212 212 78 78 78 78 78 132 132 197 197 133 133 133 133 133 133 207 31 31
 31 31 63 63 63 63 63 63 71 71 71 78 78 78 78 78 24 24 24 133
 133 133 133 133 133 133 207 207 31 31 82 82 82 63 63 63 71 71 71 71
 71 78 78 78 78 24 24 24 133 133 133 133 133 133 133 207 207 31 82 82
 82 82 82 82 169 113 113 71 71 71 78 78 78 24 24 215 215 195 195 195
 195 195 8 205 205 205 205 67 82 82 82 82 82 169 169 113 113 113 159 159
 159 159 24 24 215 215 195 195 195 195 195 8 205 205 205 205 67 67 82 82
 82 169 169 169 169 113 159 159 159 159 159 159 215 215 37 195 195 195 195 8
 8 205 205 205 205 67 67 67 82 46 169 169 169 169 169 159 159 159 159 159
 159 37 37 37 37 195 195 195 195 8 8 205 205 205 67 67 67 46 46 46
 169 169 169 169 159 159 159 159 159 37 37 183 183 183 195 195 195 83 83 13
 13 13 13 10 10 10 46 46 46 169 169 169 169 159 159 159 159 159 37 37
 183 183 183 183 195 242 242 242 13 13 13 13 10 10 10 10 46 46 169 169
 72 72 72 159 159 159 159 183 183 183 183 183 183 19 19 242 242 242 13 13
 10 10 10 10 10 10 46 72 72 72 72 72 72 90 90 90 183 183 183 183
 88 88 19 19 19 242 242 242 13 10 10 10 10 10 10 10 72 72 72 72
 72 72 90 90 90 90 183 183 183 183 19 19 19 19 101 101 101 101 10 10
 10 10 115 115 139 139 139 139 72 52 52 90 90 90 90 86 86 86 86 19
 19 19 19 101 101 101 6 6 115 115 115 115 115 139 139 139 139 52 52 52
 90 90 90 90 86 86 86 86 86 19 101 101 101 101 6 6 6 115 115 115
 115 115 139 139 139 139 139 52 52 90 90 90 90 86 86 86 86 236 236 236
 236 101 6 6 6 6 115 115 115 115 115 139 139 139 139 105 105 52 90 90
 153 153 153 43 43 43 236 236 236 236 236 6 6 6 6 115 115 115 115 115
 139 139 139 105 105 105 105 153 153 153 153 153 43 43 43 236 236 236 236 236
 6 6 6 6 115 115 115 115 115 139 139 105 105 105 105 105 153 153 153 153
 43 43 43 43 43 236 236 236 236 236 56 56 56 56 56 115 115 62 62 62
 62 105 105 105 105 153 153 153 153 43 43 43 43 200 200 236 236 236 56 56
 56 56 56 56 56 62 62 62 62 62 62 105 105 105 3 153 153 153 43 43
 200 200 200 200 200 236 236 56 56 56 56 56 56 56 62 62 62 62 62 62
 62 62 3 3 3 3 3 43 233 200 200 200 200 200 233 233 56 56 56 56
 56 56 56 130 130 62 62 62 62 62 62 3 3 3 3 3 3 233 233 200
 200 200 233 233 233 56 56 56 56 56 56 56 130 130 130 130 62 62 62 53
 53 53 3 3 3 3 233 233 233 233 233 233 233 233 56 56 56 56 56 56
 56 130 130 130 130 130 62 62 53 53 53 53 53 53 53 233 233 233 233 233
 233 233 233 56 56 56 56 56 56 229 229 229 229 229 229 229 229 53 53 53
 53 53 53 53 233 233 233 233 233 233 233 233 31 97 56 56 243 229 229 229
 229 229 229 229 229 229 53 53 53 53 53 53 53 197 197 197 233 233 233 133
 133 31 31 31 31 243 229 229 229 229 229 229 229 229 229 53 53 53 53 132
 132 132 197 197 197 197 142 133 133 133 31 31 31 31 243 243 229 229 229 229
 229 229 229 229 212 114 114 114 132 132 132 197 197 197 197 142 133 133 133 31
 31 31 31 31 243 63 63 63 63 63 63 212 212 212 78 78 78 78 132 132
 132 197 197 197 142 133 133 133 133 31 31 31 31 63 63 63 63 63 63 63
 71 71 71 78 78 78 78 132 132 132 197 197 133 133 133 133 133 133 31 31
 31 31 63 63 63 63 63 63 63 71 71 71 78 78 78 78 78 132 132 197
 197 133 133 133 133 133 133 207 207 31 31 82 82 82 63 63 63 71 71 71
 71 71 78 78 78 78 132 215 215 215 133 133 133 92 92 92 92 207 31 82
 82 82 82 82 82 169 113 113 71 71 113 78 78 78 78 24 215 215 215 195
 195 8 8 92 205 205 205 205 67 82 82 82 82 82 169 169 113 113 113 113
 159 159 78 199 215 215 215 215 195 195 8 8 8 205 205 205 205 67 67 82
 82 82 169 169 169 169 113 113 159 159 159 159 215 215 215 215 215 195 195 195
 8 8 205 205 205 205 67 67 67 82 82 169 169 169 169 169 159 159 159 159
 159 215 215 215 215 215 195 195 195 8 8 8 205 205 205 67 67 67 67 46
 169 169 169 169 169 159 159 159 159 159 215 215 183 183 183 183 195 83 83 83
 83 13 13 205 67 67 67 67 46 169 169 169 169 169 159 159 159 159 159 183
 183 183 183 183 183 224 224 83 83 83 13 13 13 10 10 10 10 46 169 169
 169 169 169 72 159 159 159 183 183 183 183 183 183 183 19 19 19 242 242 13
 13 10 10 10 10 10 10 169 169 169 72 72 72 52 52 90 90 183 183 183
 183 183 183 19 19 19 19 242 13 13 10 10 10 10 10 10 10 72 72 72
 72 72 52 52 90 90 90 183 86 86 86 86 19 19 19 101 101 101 101 10
 10 10 115 115 115 115 139 139 139 52 52 52 52 157 157 157 86 86 86 86
 86 19 19 19 101 101 101 6 115 115 115 115 115 115 115 139 139 139 52 52
 52 52 157 157 157 86 86 86 86 86 19 19 101 101 101 6 6 103 103 115
 115 115 115 115 139 139 139 52 52 52 52 157 157 153 86 86 86 86 86 236
 236 236 101 6 6 6 103 103 115 115 115 115 115 139 139 105 105 52 52 52
 153 153 153 153 153 43 43 236 236 236 236 236 6 6 6 103 103 115 115 115
 115 115 139 139 105 105 105 105 153 153 153 153 153 153 43 43 236 236 236 236
 236 236 6 6 103 103 115 115 115 115 115 139 105 105 105 105 105 153 153 153
 153 153 153 43 43 43 236 236 236 236 167 56 56 56 56 115 115 115 62 62
 62 62 105 105 105 105 153 153 153 153 153 43 43 200 200 152 152 152 152 56
 56 56 56 56 56 56 62 62 62 62 62 62 62 105 105 153 153 153 153 153
 43 200 200 200 200 152 152 152 56 56 56 56 56 56 56 62 62 62 62 62
 62 62 62 62 3 153 153 153 153 233 233 200 200 200 233 233 233 56 56 56
 56 56 56 56 62 62 62 62 62 62 62 62 62 3 3 3 3 3 233 233
 233 233 233 233 233 233 56 56 56 56 56 56 56 130 130 130 62 62 62 62
 62 53 53 53 53 53 53 233 233 233 233 233 233 233 233 56 56 56 56 56
 56 130 130 130 130 130 62 62 62 53 53 53 53 53 53 53 233 233 233 233
 233 233 233 233 56 56 56 56 56 229 229 229 229 229 229 229 229 229 53 53
 53 53 53 53 53 197 233 233 233 233 233 233 233 233 56 56 243 243 243 229
 229 229 229 229 229 229 229 53 53 53 53 53 53 53 197 197 197 233 233 233
 233 233 31 31 31 243 243 243 243 229 229 229 229 229 229 229 114 114 114 114
 114 132 132 197 197 197 197 142 142 142 133 31 31 31 243 243 243 243 229 229
 229 229 229 229 20 114 114 114 114 132 132 132 197 197 197 197 142 142 142 133
 133 31 31 243 243 243 243 63 63 63 63 63 63 71 78 78 78 78 132 132
 132 197 197 197 197 142 142 142 133 133 31 31 31 243 243 63 63 63 63 63
 63 71 71 71 78 78 78 78 132 132 197 197 197 197 142 142 142 133 133 31
 31 31 31 107 63 63 63 63 63 63 71 71 71 78 78 78 78 132 132 197
 197 197 142 142 142 133 92 92 92 207 31 82 82 82 82 63 63 63 71 71
 71 71 71 78 78 78 132 132 215 215 215 215 92 92 92 92 92 92 92 92
 82 82 82 82 82 82 169 113 71 71 113 113 78 78 78 199 132 215 215 215
 215 92 92 92 92 92 205 205 205 67 82 82 82 82 82 169 169 113 113 113
 113 113 199 199 199 215 215 215 215 215 195 8 8 8 205 205 205 205 67 67
 82 82 82 169 169 169 169 113 113 113 159 199 199 215 215 215 215 215 215 228
 8 8 8 205 205 205 205 67 67 67 82 82 169 169 169 169 169 113 159 159
 159 159 215 215 215 215 215 215 228 228 8 8 8 205 205 205 67 67 67 67
 82 169 169 169 169 169 159 159 159 159 159 215 215 183 183 183 183 228 228 83
 83 83 205 205 205 67 67 67 67 169 169 169 169 169 169 169 159 159 159 1
 1 215 183 183 183 183 224 224 83 83 83 13 13 13 10 10 10 10 169 169
 169 169 169 169 52 52 52 52 183 183 183 183 183 183 183 224 224 224 224 242
 13 13 10 10 10 10 10 10 169 169 169 72 52 52 52 52 52 90 183 183
 183 183 183 183 224 224 224 224 242 13 13 10 10 10 10 10 10 169 72 72
 72 52 52 52 52 52 90 183 183 86 86 86 86 19 19 19 176 176 176 176
 115 115 115 115 115 115 115 170 170 52 52 52 52 52 157 157 157 86 86 86
 86 86 19 19 176 176 176 176 176 115 115 115 115 115 115 115 170 170 52 52
 52 52 52 157 157 157 86 86 86 86 86 86 176 176 176 176 176 103 103 103
 115 115 115 115 115 170 170 170 52 52 52 52 157 157 157 86 153 86 86 86
 86 236 176 176 176 176 103 103 103 103 115 115 115 115 170 170 170 52 52 52
 52 153 153 153 153 153 153 86 86 236 236 176 176 176 176 103 103 103 103 115
 115 115 115 170 170 105 105 105 52 153 153 153 153 153 153 153 43 236 236 236
 167 167 167 167 103 103 103 115 115 115 115 115 170 105 105 105 105 105 153 153
 153 153 153 153 153 43 152 152 152 152 167 167 167 56 56 103 115 115 115 115
 62 62 62 62 105 105 105 153 153 153 153 153 153 153 200 152 152 152 152 152
 167 240 56 56 56 56 9 9 62 62 62 62 62 62 105 105 153 153 153 153
 153 233 233 233 233 152 152 152 152 240 240 240 240 240 240 9 9 9 62 62
 62 62 62 62 134 134 134 153 153 153 233 233 233 233 233 233 233 233 240 240
 240 240 240 240 9 9 9 62 62 62 62 62 62 134 134 134 134 134 153 233
 233 233 233 233 233 233 233 56 56 240 240 240 240 9 9 130 130 62 62 62
 210 210 53 134 134 134 134 153 233 233 233 206 233 233 233 233 56 56 240 240
 240 240 9 130 130 130 229 62 210 210 210 53 53 53 53 53 53 233 233 233
 233 233 233 233 233 233 56 49 240 243 243 229 229 229 229 229 229 210 210 210
 53 53 53 53 53 53 197 197 233 233 233 233 233 233 233 234 243 243 243 243
 243 229 229 229 229 229 229 210 210 53 114 114 114 53 197 197 197 197 233 233
 233 233 233 234 234 243 243 243 243 243 243 229 229 229 229 20 20 20 114 114
 114 114 132 197 197 197 197 197 142 142 142 142 234 234 234 243 243 243 243 243
 229 229 229 229 20 20 20 114 114 114 114 132 132 197 197 197 197 142 142 142
 142 234 234 234 234 243 243 243 107 107 63 63 63 20 20 20 114 114 114 114
 132 132 197 197 197 142 142 142 142 142 234 234 234 234 243 243 107 107 107 63
 63 63 71 71 71 78 78 78 78 132 132 197 197 197 142 142 142 142 142 234
 234 234 234 234 107 107 107 36 63 63 63 71 71 71 78 78 78 78 132 132
 197 197 197 142 142 142 142 92 92 92 234 234 234 107 36 36 36 36 36 71
 71 71 71 71 78 78 78 132 132 215 215 215 142 142 92 92 92 92 92 92
 234 82 82 82 36 36 36 36 113 71 71 71 199 199 199 199 199 199 215 215
 215 215 92 92 92 92 92 92 205 205 67 82 82 82 82 82 169 169 169 113
 113 199 199 199 199 199 199 215 215 215 215 215 92 92 92 92 205 205 205 67
 67 82 82 82 169 169 169 169 169 113 199 199 199 199 199 215 215 215 215 215
 228 228 175 175 175 205 205 205 67 67 67 82 82 169 169 169 169 169 113 159
 199 199 199 215 215 215 215 215 215 228 228 228 175 175 205 205 205 67 67 67