# vtk DataFile Version 2.0
Data set from ImportExport Version 6.5.171.b0b162591
ASCII

DATASET RECTILINEAR_GRID
DIMENSIONS 30 30 30
X_COORDINATES 30 float
-1.250000 1.250000 3.750000 6.250000 8.750000 11.250000 13.750000 16.250000 18.750000 21.250000 23.750000 26.250000 28.750000 31.250000 33.750000 36.250000 38.750000 41.250000 43.750000 46.250000 48.750000 
51.250000 53.750000 56.250000 58.750000 61.250000 63.750000 66.250000 68.750000 71.250000 
Y_COORDINATES 30 float
-1.250000 1.250000 3.750000 6.250000 8.750000 11.250000 13.750000 16.250000 18.750000 21.250000 23.750000 26.250000 28.750000 31.250000 33.750000 36.250000 38.750000 41.250000 43.750000 46.250000 48.750000 
51.250000 53.750000 56.250000 58.750000 61.250000 63.750000 66.250000 68.750000 71.250000 
Z_COORDINATES 30 float
-1.250000 1.250000 3.750000 6.250000 8.750000 11.250000 13.750000 16.250000 18.750000 21.250000 23.750000 26.250000 28.750000 31.250000 33.750000 36.250000 38.750000 41.250000 43.750000 46.250000 48.750000 
51.250000 53.750000 56.250000 58.750000 61.250000 63.750000 66.250000 68.750000 71.250000 
CELL_DATA 24389
SCALARS FeatureIds int 1
LOOKUP_TABLE default
 192 240 240 240 38 38 38 38 38 38 38 16 16 16 16 16 16 16 79 79
 79 79 79 54 192 192 192 192 192 192 240 240 240 38 38 38 38 38 38 121
 121 16 16 16 16 16 16 79 79 79 54 54 54 192 192 192 192 192 192 192
 192 102 102 38 38 38 38 38 121 121 121 121 99 99 99 99 99 54 54 54
 54 54 54 192 192 192 192 192 192 192 102 102 102 38 38 38 121 121 121 121
 121 99 99 99 99 99 93 93 54 54 54 54 192 192 192 192 192 192 192 102
 102 102 164 164 164 121 121 121 121 121 99 99 99 99 93 93 93 93 54 54
 54 192 192 192 192 192 192 192 102 102 164 164 164 164 121 121 121 121 121 99
 99 99 77 93 93 93 93 93 93 93 192 192 192 192 192 192 192 177 177 177
 164 164 164 10 10 10 10 10 10 10 77 77 77 93 93 93 93 93 93 192
 192 192 192 192 192 177 177 177 177 177 177 10 10 10 10 10 10 10 10 77
 77 77 77 93 93 93 93 93 174 192 192 192 192 192 177 177 177 177 177 177
 10 10 10 10 10 10 10 143 77 77 77 77 93 93 174 174 174 174 91 91
 91 192 120 120 120 177 113 177 10 10 10 10 10 10 10 143 143 143 77 77
 77 134 174 174 174 174 174 91 91 91 120 120 120 120 120 113 148 10 10 10
 10 10 10 10 143 143 143 143 77 77 134 174 174 174 174 174 91 91 91 120
 120 120 120 120 120 148 130 130 10 10 10 10 143 143 143 143 143 234 234 134
 134 174 174 174 174 91 91 91 182 120 120 120 120 219 219 130 130 130 10 10
 64 64 143 143 234 234 234 234 134 134 174 174 174 174 149 149 149 182 182 211
 120 219 219 219 219 130 130 10 10 64 64 64 234 234 234 234 234 134 134 174
 174 174 149 149 149 149 182 182 211 211 211 219 219 76 229 229 229 229 64 64
 64 234 234 234 234 234 234 134 174 174 149 149 149 149 149 182 182 211 211 211
 211 211 229 229 229 229 229 154 154 154 234 234 234 234 234 105 105 105 105 149
 149 149 149 182 182 182 211 211 211 211 142 229 229 229 229 229 154 154 154 198
 198 198 198 198 105 105 105 105 20 20 149 182 182 183 183 183 211 211 142 142
 229 229 229 229 229 154 154 154 154 198 198 198 198 105 105 105 105 39 39 39
 182 182 183 183 183 183 142 142 142 229 229 229 229 229 154 154 154 154 198 198
 198 198 52 52 52 52 39 39 39 39 183 183 183 183 183 142 142 142 229 229
 229 229 136 154 154 154 154 198 198 52 52 52 52 52 52 39 39 39 39 183
 183 183 183 183 183 142 142 229 136 136 136 136 136 136 154 154 198 198 52 52
 52 52 52 52 52 39 39 39 183 183 183 183 183 191 191 136 136 136 136 136
 136 136 136 226 226 226 52 52 52 52 52 52 52 52 39 39 39 183 183 183
 191 191 191 191 191 136 136 136 136 136 136 226 226 226 226 52 52 52 52 52
 52 52 58 58 58 58 183 27 27 191 191 191 191 191 136 136 136 136 136 136
 226 226 226 226 52 52 52 52 52 52 52 58 58 58 58 27 27 27 27 191
 191 168 168 168 236 136 136 136 226 226 226 226 226 52 52 97 97 97 97 97
 58 58 58 58 27 27 27 27 27 191 168 168 168 236 236 136 136 226 226 226
 226 226 97 97 97 97 97 97 97 58 58 58 27 27 27 27 27 27 27 168
 168 168 236 236 16 16 16 16 16 16 16 97 97 97 97 97 97 97 78 58
 58 27 27 27 27 27 27 27 168 168 38 38 38 16 16 16 16 16 16 16
 97 97 97 97 97 97 78 78 78 192 192 27 192 27 27 27 38 38 38 38
 38 38 16 16 16 16 16 16 16 16 97 97 97 97 78 78 78 78 192 192
 192 240 240 240 240 38 38 38 38 38 38 38 16 16 16 16 16 16 16 79
 79 79 79 79 79 31 192 192 192 192 192 240 240 240 240 38 38 38 38 38
 121 16 16 16 16 16 16 16 79 79 79 79 31 31 31 192 192 192 192 192
 240 240 240 102 38 38 38 38 38 121 121 121 121 16 99 99 99 224 79 79
 31 31 31 31 192 192 192 192 192 192 192 102 102 38 38 38 38 38 121 121
 121 121 99 99 99 99 224 251 251 31 31 31 31 192 192 192 192 192 192 192
 102 102 102 164 164 164 121 121 121 121 121 99 99 99 224 251 251 251 251 31
 31 31 192 192 192 192 192 192 192 102 177 177 164 164 164 10 121 121 121 10
 10 99 99 77 251 251 251 251 251 31 31 192 192 192 192 192 192 192 177 177
 177 177 177 10 10 10 10 10 10 10 10 77 77 77 93 93 93 93 93 192
 192 192 192 192 192 192 177 177 177 177 177 177 10 10 10 10 10 10 10 10
 77 77 77 77 93 93 93 174 174 192 192 192 192 192 192 177 177 177 177 177
 177 10 10 10 10 10 10 10 143 77 77 77 77 93 174 174 174 174 174 91
 91 91 192 192 148 148 148 148 148 148 10 10 10 10 10 10 10 143 143 77
 77 134 134 174 174 174 174 174 174 91 91 192 120 120 148 148 148 148 148 10
 10 10 10 10 10 143 143 143 143 77 134 134 134 174 174 174 174 174 91 91
 149 120 120 120 148 148 148 10 10 10 10 10 10 10 143 143 143 234 234 134
 134 134 174 174 174 174 174 91 149 149 149 120 120 120 219 219 10 10 10 10
 10 10 10 143 143 234 234 234 234 134 134 134 174 174 174 149 149 149 149 149
 211 211 219 219 219 76 76 10 223 223 223 64 64 234 234 234 234 234 134 134
 134 134 174 149 149 149 149 182 182 211 211 211 211 76 76 76 229 223 223 223
 64 64 234 234 234 234 234 134 134 134 134 149 149 149 149 149 182 182 211 211
 211 211 211 76 76 229 229 229 154 154 154 234 234 234 234 234 105 105 105 162
 149 149 149 149 182 182 182 211 211 211 211 211 229 229 229 229 229 154 154 154
 154 198 198 198 198 105 105 105 162 20 20 149 182 182 182 183 183 211 211 211
 229 229 229 229 229 229 154 154 154 154 198 198 198 198 105 105 105 20 20 20
 20 182 182 183 183 183 183 211 211 229 229 229 229 229 229 154 154 154 154 198
 198 52 52 52 52 52 52 20 20 20 39 183 183 183 183 183 211 211 229 229
 229 229 229 136 154 154 154 154 198 198 52 52 52 52 52 52 52 20 39 39
 183 183 183 183 183 183 183 229 229 136 136 136 136 136 136 154 123 123 52 52
 52 52 52 52 52 52 39 39 39 183 183 183 183 183 183 183 136 136 136 136
 136 136 136 136 226 123 123 52 52 52 52 52 52 52 52 39 39 183 183 183
 183 183 191 191 191 136 136 136 136 136 136 136 136 226 226 123 52 52 52 52
 52 52 52 52 58 58 58 183 27 27 27 27 191 191 191 136 136 136 136 136
 136 136 226 226 226 52 52 52 52 52 52 52 52 58 58 58 27 27 27 27
 27 191 168 168 168 136 136 136 136 136 136 226 226 226 97 97 97 97 97 97
 97 97 58 58 27 27 27 27 27 27 27 168 168 168 236 236 136 136 136 226
 16 226 97 97 97 97 97 97 97 97 97 58 139 27 27 27 27 27 27 27
 168 168 168 236 236 16 16 16 16 16 16 16 97 97 97 97 97 97 97 97
 58 139 27 27 27 27 27 27 27 38 38 38 38 38 16 16 16 16 16 16
 16 97 97 97 97 97 97 97 78 78 192 192 27 192 240 240 27 38 38 38
 38 38 38 38 16 16 16 16 16 16 16 79 79 79 79 79 79 78 78 192
 192 192 240 240 240 240 38 38 38 38 38 38 38 16 16 16 16 16 16 79
 79 79 79 79 79 79 31 192 192 192 192 240 240 240 240 240 38 38 38 38
 38 38 16 16 16 16 16 16 79 79 79 79 79 31 31 31 192 192 192 192
 192 240 240 240 38 38 38 38 38 38 38 121 16 16 16 16 224 224 224 79
 79 31 31 31 31 192 192 192 192 192 192 192 192 38 38 38 38 38 38 38
 121 121 221 221 224 224 224 224 251 251 31 31 31 31 31 192 192 192 192 192
 192 192 177 177 164 164 38 38 121 121 121 221 221 224 224 224 251 251 251 251
 31 31 31 192 192 192 192 192 192 192 192 177 177 177 164 140 10 10 10 10
 10 10 141 224 224 251 251 251 251 251 31 31 192 192 192 192 192 192 192 177
 177 177 177 177 10 10 10 10 10 10 10 141 141 141 251 251 251 251 251 251
 31 192 192 192 192 192 192 192 177 177 177 177 177 10 10 10 10 10 10 10
 10 141 77 77 251 251 251 251 251 56 56 192 192 192 192 192 148 148 148 148
 148 148 10 10 10 10 10 10 10 10 141 77 77 134 134 134 174 174 174 174
 174 192 192 159 159 148 148 148 148 148 148 10 10 10 10 10 10 10 143 143
 77 134 134 134 134 174 174 174 174 174 159 159 159 148 148 148 148 148 148 148
 10 10 10 10 10 10 10 143 143 143 134 134 134 134 174 174 174 174 174 159
 159 149 148 148 148 148 148 148 148 10 10 10 10 10 10 143 143 234 234 234
 134 134 134 134 174 174 174 174 149 149 149 149 211 148 148 148 148 76 10 10
 10 10 10 10 143 234 234 234 234 134 134 134 134 134 174 174 149 149 149 149
 149 211 211 211 211 76 76 76 76 223 223 223 10 234 234 234 234 234 234 134
 134 134 134 174 149 149 149 149 182 182 211 211 211 211 76 76 76 76 223 223
 223 223 234 234 234 234 234 234 134 134 134 134 162 149 149 149 149 182 182 211
 211 211 211 76 76 76 76 229 223 223 154 154 234 234 234 234 234 134 134 134
 162 162 149 149 149 182 182 182 211 211 211 211 76 76 76 229 229 229 154 154
 154 154 17 17 17 17 17 162 162 162 20 20 20 182 182 182 183 183 211 211
 211 229 229 229 229 229 229 154 154 154 154 154 17 17 52 52 52 20 20 20
 20 20 182 182 183 183 183 183 211 211 229 229 229 229 229 229 154 154 154 154
 154 52 52 52 52 52 52 52 20 20 20 20 183 183 183 183 183 211 211 229
 229 229 229 229 136 154 154 154 123 123 52 52 52 52 52 52 52 52 20 20
 183 183 183 183 183 183 183 183 229 229 229 136 136 136 136 136 123 123 123 123
 52 52 52 52 52 52 52 20 20 183 183 183 183 183 183 183 84 136 136 136
 136 136 136 136 136 123 123 123 123 52 52 52 52 52 52 52 52 39 183 183
 104 104 104 104 104 191 136 136 136 136 136 136 136 136 123 123 123 123 52 52
 52 52 52 52 52 52 104 104 104 104 27 104 104 104 191 136 136 136 136 136
 136 136 136 123 123 123 52 52 52 52 52 52 52 52 52 139 139 104 27 27
 27 27 27 168 168 136 136 136 136 136 136 136 123 123 123 52 52 97 97 97
 97 97 97 139 139 139 139 27 27 27 27 27 168 168 168 136 136 136 136 136
 16 16 16 97 97 97 97 97 97 97 97 97 139 139 139 139 27 27 27 27
 27 168 168 38 38 136 16 16 16 16 16 16 16 97 97 97 97 97 97 97
 97 139 139 139 139 27 27 27 27 27 38 38 38 38 38 16 16 16 16 16
 16 16 79 79 79 79 79 79 79 79 139 139 139 139 192 240 240 27 38 38
 38 38 38 38 38 16 16 16 16 16 16 79 79 79 79 79 79 79 79 79
 192 192 192 192 240 240 240 38 38 38 30 30 30 30 221 221 221 221 221 221
 79 79 79 79 79 79 79 79 192 192 192 192 192 240 240 240 38 38 38 30
 30 30 30 221 221 221 221 221 221 79 79 79 79 79 31 31 31 31 192 192
 192 192 240 240 240 38 38 38 30 30 30 30 221 221 221 221 221 224 224 224
 79 79 31 31 31 31 31 192 192 192 192 192 192 192 192 38 38 38 38 30
 30 221 221 221 221 224 224 224 224 251 251 31 31 31 31 31 192 192 192 192
 192 192 192 49 140 140 140 140 140 140 221 221 221 221 224 224 224 224 251 251
 251 31 31 31 31 192 192 192 192 192 192 49 49 177 140 140 140 140 131 131
 10 10 141 141 224 224 224 251 251 251 251 31 31 192 192 192 192 192 192 192
 148 177 177 140 140 140 10 131 131 10 10 10 141 141 141 141 251 251 251 251
 233 233 192 192 192 192 192 192 148 148 148 148 148 148 140 10 10 10 10 10
 10 141 141 141 141 251 251 251 233 56 56 56 159 192 192 159 159 148 148 148
 148 148 148 10 10 10 10 10 10 10 141 141 141 141 134 134 134 56 56 56
 56 159 159 159 159 159 148 148 148 148 148 148 10 10 10 10 10 10 10 10
 141 141 141 134 134 134 134 56 56 56 159 159 159 159 159 148 148 148 148 148
 148 10 10 10 10 10 10 10 143 143 141 134 134 134 134 134 174 174 174 159
 159 159 159 222 148 148 148 148 148 148 10 10 10 10 10 10 143 143 234 234
 134 134 134 134 134 134 174 174 159 159 159 149 222 148 148 87 87 87 148 76
 10 223 223 10 10 143 234 234 234 234 134 134 134 134 134 134 149 149 149 149
 149 149 211 87 87 87 87 76 76 76 223 223 223 223 161 234 234 234 234 134
 134 134 134 134 134 149 149 149 149 149 182 211 211 87 87 76 76 76 76 223
 223 223 161 161 161 17 17 17 17 134 134 134 162 162 149 149 149 149 182 182
 211 211 211 211 76 76 76 76 223 223 223 154 161 161 17 17 17 17 134 134
 162 162 162 162 149 149 182 182 182 211 211 211 211 76 76 76 76 229 229 154
 154 161 161 17 17 17 17 17 162 162 162 162 20 20 182 182 182 183 183 211
 211 211 76 76 76 229 229 229 154 154 154 154 17 17 17 17 52 162 162 162
 20 20 20 20 182 183 183 183 183 211 211 229 229 229 229 229 229 154 154 154
 123 123 17 17 52 52 52 52 95 20 20 20 20 183 183 183 183 183 183 84
 229 229 229 229 71 136 154 123 123 123 123 123 52 52 52 52 52 95 95 20
 20 20 183 183 183 183 183 84 84 71 71 71 71 71 136 136 123 123 123 123
 123 52 52 52 52 52 52 52 20 20 183 183 104 104 104 104 104 84 71 71
 71 71 136 136 136 123 123 123 123 123 52 52 52 55 52 52 52 52 104 104
 104 104 104 104 104 104 84 71 71 71 71 136 136 136 123 123 123 123 123 52
 52 52 55 52 52 52 52 104 104 104 104 104 104 104 104 104 71 71 71 136
 136 136 136 123 123 123 123 123 52 52 52 52 52 52 52 139 139 139 104 104
 104 104 104 104 104 71 71 71 136 136 136 136 123 123 123 123 123 97 97 97
 97 97 97 97 139 139 139 139 27 27 27 27 27 104 3 3 3 136 136 136
 16 16 132 123 123 123 97 97 97 97 97 97 97 139 139 139 139 27 27 27
 27 27 3 3 3 3 3 3 16 16 16 132 132 132 79 79 79 79 79 79
 97 97 139 139 139 139 27 27 27 27 27 38 38 38 38 3 16 16 16 16
 132 132 132 79 79 79 79 79 79 79 79 139 139 139 139 192 240 240 27 38
 38 38 38 38 38 16 16 16 16 16 16 16 79 79 79 79 79 79 79 79
 79 192 192 192 192 240 240 240 30 30 30 30 30 30 30 221 221 221 221 221
 221 79 79 79 79 79 79 79 79 192 192 192 192 192 240 240 240 38 38 30
 30 30 30 30 221 221 221 221 221 221 224 79 79 79 79 31 31 31 31 192
 192 192 192 192 240 240 30 30 30 30 30 30 30 221 221 221 221 221 224 224
 224 224 79 31 31 31 31 31 192 192 192 192 192 192 192 49 140 140 140 30
 30 221 221 221 221 221 224 224 224 224 224 251 31 31 31 31 31 192 192 192
 192 192 192 49 49 140 140 140 140 140 140 221 221 221 221 224 224 224 224 224
 251 251 31 31 31 31 192 192 192 192 192 49 49 49 140 140 140 140 140 131
 131 131 131 141 141 224 224 224 224 251 251 251 31 31 31 192 192 192 192 192
 49 49 49 140 140 140 140 140 131 131 131 131 131 141 141 141 141 141 251 251
 233 233 233 56 192 192 192 159 159 148 148 148 148 148 140 140 131 131 131 131
 131 131 141 141 141 141 141 251 251 233 233 56 56 159 159 159 159 159 148 148
 148 148 148 148 36 131 131 131 131 131 141 141 141 141 141 141 134 134 233 56
 56 56 159 159 159 159 159 148 148 148 148 148 148 36 10 10 10 10 10 10
 141 141 141 141 134 134 134 134 56 56 56 159 159 159 159 159 148 148 148 148
 148 148 10 10 10 10 10 10 10 202 202 202 134 134 134 134 134 134 56 159
 159 159 159 222 222 148 148 148 148 148 148 36 10 10 10 10 10 143 202 202
 202 134 134 134 134 134 134 134 159 159 159 159 222 222 222 87 87 87 87 87
 76 76 223 223 10 10 161 161 17 17 134 134 134 134 134 134 134 134 149 149
 149 222 222 222 87 87 87 87 76 76 76 223 223 223 161 161 161 17 17 17
 134 134 134 134 134 134 149 149 149 149 149 222 222 87 87 87 87 76 76 76
 223 223 223 161 161 161 17 17 17 17 134 134 134 162 162 162 149 149 149 182
 182 211 211 87 87 76 76 76 76 223 223 223 161 161 161 17 17 17 17 17
 134 162 162 162 162 162 149 149 182 182 211 188 188 188 188 76 76 76 76 229
 154 161 161 161 17 17 17 17 17 162 162 162 162 162 162 162 182 182 183 183
 188 188 188 188 76 76 76 229 229 154 161 161 161 17 17 17 17 17 162 162
 162 162 162 20 20 182 183 183 183 188 188 188 188 229 229 229 229 229 154 123
 123 123 123 17 17 17 52 95 95 95 162 20 20 20 183 183 183 183 183 84
 84 84 71 71 71 71 71 123 123 123 123 123 123 123 55 55 55 95 95 95
 95 20 20 183 104 104 104 104 84 84 84 71 71 71 71 71 123 123 123 123
 123 123 123 55 55 55 55 95 95 95 95 183 183 104 104 104 104 84 84 84
 71 71 71 71 71 123 123 123 123 123 123 123 55 55 55 55 55 95 95 95
 104 104 104 104 104 104 104 84 84 71 71 71 71 71 123 123 123 123 123 123
 123 55 55 55 55 55 55 95 104 104 104 104 104 104 104 104 104 71 71 71
 71 71 136 136 123 123 123 123 123 123 55 55 55 55 55 55 104 104 104 104
 104 104 104 104 104 104 71 71 71 3 3 136 136 123 123 123 123 123 123 97
 97 97 97 97 139 139 139 139 104 104 104 104 104 104 104 3 3 3 3 3
 3 132 132 132 132 123 123 79 79 79 79 79 97 97 139 139 139 104 104 104
 104 104 104 3 3 3 3 3 3 3 132 132 132 132 132 79 79 79 79 79
 79 79 79 139 139 139 139 104 27 104 104 104 3 3 3 3 3 3 3 132
 132 132 132 132 79 79 79 79 79 79 79 79 139 139 139 139 144 144 144 144
 30 30 30 30 30 3 3 221 221 221 221 132 132 79 79 79 79 79 79 79
 79 79 139 144 144 144 144 144 144 144 30 30 30 30 30 221 221 221 221 221
 221 221 135 135 79 79 79 79 79 79 144 144 144 144 144 144 144 144 144 30
 30 30 30 30 221 221 221 221 221 221 221 135 135 135 79 79 31 31 31 31
 192 192 144 192 144 144 144 49 30 30 30 30 30 221 221 221 221 221 221 224
 224 224 135 135 31 31 31 31 31 192 192 192 192 192 49 49 49 140 140 140
 140 140 221 221 221 221 221 224 224 224 224 224 251 31 31 31 31 31 192 192
 192 192 192 49 49 49 140 140 140 140 140 33 33 221 221 221 224 224 224 224
 224 251 251 31 31 173 173 173 192 192 192 49 49 49 49 49 140 140 140 140
 33 131 131 131 141 141 224 224 224 224 251 251 251 233 173 173 173 192 192 192
 49 49 49 49 49 140 140 140 140 131 131 131 131 131 141 141 141 141 141 251
 251 233 233 233 173 173 173 192 159 49 49 49 49 49 140 140 140 131 131 131
 131 131 131 141 141 141 141 141 251 233 233 233 233 56 159 159 159 159 159 148
 148 148 148 36 36 36 36 131 131 131 131 131 141 141 141 141 141 134 233 233
 233 56 56 159 159 159 159 159 148 148 148 148 36 36 36 36 131 131 131 131
 202 202 202 202 141 141 134 134 134 56 56 159 159 159 159 159 159 148 148 148
 36 36 36 36 36 10 10 10 10 202 202 202 202 202 134 134 134 134 134 56
 159 159 159 159 222 222 222 87 87 87 36 36 36 36 10 10 10 10 202 202
 202 202 202 134 134 134 134 134 134 159 159 159 159 222 222 222 87 87 87 87
 87 36 36 204 223 204 161 161 17 17 17 17 134 134 134 134 134 134 134 159
 159 222 222 222 222 87 87 87 87 87 76 76 223 223 223 161 161 161 17 17
 17 17 134 134 134 134 162 162 149 149 222 222 222 222 87 87 87 87 76 76
 76 223 223 223 161 161 161 17 17 17 17 17 124 124 124 162 162 149 149 222
 222 222 60 60 87 87 87 76 76 76 223 223 223 161 161 161 17 17 17 17
 17 124 124 162 162 162 162 149 149 182 60 60 60 188 188 188 76 76 76 76
 216 161 161 161 161 17 17 17 17 17 124 124 162 162 162 162 162 182 182 60
 60 60 188 188 188 188 76 76 229 216 216 161 161 161 17 17 17 17 157 124
 124 162 162 162 162 20 182 183 60 60 60 188 188 188 188 71 71 71 71 123
 123 123 123 123 17 17 17 157 157 95 95 95 162 162 162 183 183 183 60 60
 84 84 84 71 71 71 71 71 123 123 123 123 123 123 123 55 55 55 95 95
 95 95 162 162 183 104 104 104 84 84 84 84 71 71 71 71 71 123 123 123
 123 123 123 123 55 55 55 55 95 95 95 95 104 104 104 104 104 104 84 84
 84 71 71 71 71 71 123 123 123 123 123 123 123 55 55 55 55 95 95 95
 95 104 104 104 104 104 104 104 84 84 71 71 71 71 71 123 123 123 123 123
 123 123 55 55 55 55 55 95 95 104 104 104 104 104 104 104 104 84 84 71
 71 71 71 71 123 123 123 123 123 123 123 55 55 55 55 55 95 104 104 104
 104 104 104 104 104 104 104 84 71 3 3 3 3 132 123 123 123 123 123 123
 55 55 55 55 55 139 139 139 104 104 104 104 104 104 104 104 3 3 3 3
 3 3 132 132 132 132 132 123 79 79 79 79 79 79 79 139 139 104 104 104
 104 104 104 104 3 3 3 3 3 3 3 132 132 132 132 132 132 79 79 79
 79 79 79 79 139 139 104 104 144 144 104 104 104 3 3 3 3 3 3 3
 132 132 132 132 137 137 79 79 79 79 79 79 79 79 144 144 144 144 144 144
 144 144 3 3 3 3 3 3 221 221 221 132 137 137 137 79 79 79 79 79
 79 79 144 144 144 144 144 144 144 144 144 144 30 30 30 30 221 221 221 221
 221 137 137 135 135 135 135 135 79 79 144 144 144 144 144 144 144 144 144 144
 172 172 30 30 30 221 221 221 221 221 221 137 135 135 135 135 135 135 31 31
 144 144 144 144 144 144 144 144 49 172 172 172 172 172 221 221 221 221 221 221
 224 224 135 135 135 135 31 31 31 173 144 144 144 144 144 49 49 49 49 140
 140 140 33 33 33 221 221 221 224 224 224 224 224 135 31 31 173 173 173 173
 173 192 144 49 49 49 49 49 140 140 140 33 33 33 33 221 221 224 224 224
 224 224 251 251 31 173 173 173 173 173 192 192 49 49 49 49 49 140 140 140
 33 33 33 33 33 141 141 224 224 224 224 251 233 233 173 173 173 173 173 173
 49 49 49 49 49 49 140 140 140 140 131 131 131 57 57 141 141 141 141 141
 251 233 233 233 173 173 173 173 173 159 49 49 49 49 49 36 36 36 36 131
 131 131 57 57 141 141 141 141 141 141 233 233 233 233 173 159 159 159 159 159
 49 49 49 36 36 36 36 36 131 131 131 57 57 202 202 202 202 141 141 233
 233 233 56 56 159 159 159 159 159 49 49 36 36 36 36 36 36 36 131 131
 57 57 202 202 202 202 202 134 220 220 56 56 159 159 159 159 159 159 159 36
 36 36 36 36 36 36 36 131 131 57 202 202 202 202 202 202 134 220 220 220
 56 159 159 159 159 222 222 222 87 87 36 36 36 36 36 36 204 204 204 202
 202 202 202 202 202 134 220 220 220 220 159 159 159 159 222 222 222 87 87 87
 87 36 36 36 204 204 204 204 161 202 17 17 17 134 134 134 220 220 220 159
 159 159 222 222 222 222 87 87 87 87 87 76 204 204 204 204 161 161 161 17
 17 17 17 134 134 124 124 124 124 228 222 222 222 222 222 87 87 87 87 87
 76 216 216 204 204 161 161 161 17 17 17 17 124 124 124 124 124 124 228 228
 222 222 222 60 60 60 87 87 76 216 216 216 216 216 161 161 161 17 17 17
 17 124 124 124 124 124 162 228 228 228 228 60 60 60 60 188 188 188 216 216
 216 216 216 161 161 161 17 17 17 17 124 124 124 124 124 162 228 228 228 228
 60 60 60 60 188 188 188 216 216 216 216 216 161 161 161 17 17 17 17 157
 124 124 124 124 162 228 228 228 60 60 60 60 60 188 188 188 216 216 216 216
 216 123 123 123 123 17 17 157 157 157 157 95 95 162 228 228 228 104 60 60
 60 84 84 84 84 71 71 71 71 123 123 123 123 123 123 123 157 157 157 157
 95 95 95 95 228 228 104 104 104 84 84 84 84 84 71 71 71 71 123 123
 123 123 123 123 123 157 157 157 157 95 95 95 95 104 104 104 104 104 104 84
 84 84 71 71 71 71 71 123 123 123 123 123 123 123 55 55 55 55 95 95
 95 155 104 104 104 104 104 104 84 84 84 71 71 71 71 71 123 123 123 123
 123 123 123 55 55 55 55 55 95 155 155 155 104 104 104 104 104 104 84 84
 71 71 71 71 71 123 123 123 123 123 123 123 201 201 201 55 201 201 155 155
 155 104 104 104 104 104 104 104 46 3 3 3 3 3 3 123 123 123 123 123
 123 201 201 201 111 111 155 155 155 155 104 104 104 104 104 104 46 3 3 3
 3 3 3 132 132 132 132 137 137 137 79 79 79 111 111 111 155 155 155 104
 104 104 104 104 104 46 3 3 3 3 3 3 132 132 132 132 137 137 137 79
 79 79 79 79 79 155 155 155 104 144 144 144 144 144 3 3 3 3 3 3
 3 132 132 132 137 137 137 79 79 79 79 79 79 79 144 144 144 144 144 144
 144 144 144 3 3 3 3 3 3 221 221 221 137 137 137 137 135 135 79 79
 79 79 79 144 144 144 144 144 144 144 144 144 172 172 172 172 172 221 221 221
 221 221 137 137 135 135 135 135 135 135 135 144 144 144 144 144 144 144 144 144
 144 172 172 172 172 172 221 221 221 221 221 221 137 135 135 135 135 135 135 31
 144 144 144 144 144 144 144 144 144 144 172 172 172 172 172 33 221 221 221 221
 221 224 135 135 135 135 135 135 173 173 209 209 144 144 144 144 144 49 49 172
 172 172 172 33 33 33 33 221 221 221 224 224 135 135 135 135 135 173 173 173
 209 209 209 144 144 49 49 49 49 172 172 172 33 33 33 33 33 221 224 224
 224 224 224 135 135 173 173 173 173 173 209 209 144 49 49 49 49 49 49 140
 140 33 33 33 33 33 33 141 224 224 224 224 215 215 233 173 173 173 173 173
 209 49 49 49 49 49 49 49 140 36 33 33 33 57 57 57 141 141 141 141
 141 215 233 233 233 173 173 173 173 173 159 49 49 49 49 49 36 36 36 36
 131 131 57 57 57 202 202 202 202 202 202 233 233 233 173 173 173 159 159 159
 23 49 49 49 36 36 36 36 36 36 131 57 57 57 202 202 202 202 202 220
 220 220 220 233 159 159 159 159 159 23 23 49 36 36 36 36 36 36 36 131
 131 57 57 202 202 202 202 202 220 220 220 220 220 159 159 159 159 159 222 222
 36 36 36 36 36 36 36 36 36 204 19 202 202 202 202 202 202 220 220 220
 220 220 159 159 159 159 222 222 222 36 36 36 36 36 36 36 36 204 204 204
 202 202 202 202 202 202 220 220 220 220 220 220 159 159 159 222 222 222 222 87
 87 53 53 53 204 204 204 204 204 204 202 202 202 178 178 220 220 220 220 220
 220 159 222 222 222 222 222 87 87 87 87 53 53 204 204 204 204 204 244 244
 17 17 17 17 220 220 220 124 124 124 228 222 222 222 222 222 222 87 87 87
 53 216 216 204 204 204 204 244 244 17 17 17 17 124 124 124 124 124 124 228
 228 222 228 222 60 60 60 60 87 216 216 216 216 216 216 165 161 161 17 17
 17 17 124 124 124 124 124 124 228 228 228 228 60 60 60 60 60 188 216 216
 216 216 216 216 165 205 205 17 17 17 17 124 124 124 124 124 124 228 228 228
 228 60 60 60 60 60 188 188 216 216 216 216 216 165 205 205 205 17 17 17
 157 124 124 124 124 228 228 228 228 228 60 60 60 60 60 188 188 216 216 216
 216 165 165 205 205 205 17 17 157 157 157 157 124 124 228 228 228 228 60 60
 60 60 60 84 84 84 71 71 216 216 165 123 123 123 123 123 123 157 157 157
 157 157 95 95 228 228 228 104 104 104 84 84 84 84 84 71 71 71 71 123
 123 123 123 123 123 123 157 157 157 157 157 95 95 42 42 42 104 104 104 104
 84 84 84 84 71 71 71 71 123 123 123 123 123 123 123 201 201 201 157 157
 95 95 155 155 104 104 104 104 104 84 84 84 71 71 71 71 71 123 123 123
 123 123 123 123 201 201 201 201 201 201 155 155 155 104 104 104 104 104 104 46
 46 46 71 71 71 71 123 123 123 123 123 123 123 201 201 201 201 201 201 155
 155 155 155 104 104 104 104 104 46 46 46 46 3 3 3 3 123 123 123 123
 123 111 111 111 111 111 111 111 155 155 155 155 104 104 104 104 104 46 46 46
 3 3 3 3 132 132 137 137 137 137 111 111 111 111 111 111 111 155 155 155
 155 104 104 104 104 104 46 46 3 3 3 3 3 132 132 137 137 137 137 137
 111 111 111 111 111 111 155 155 155 104 144 144 144 144 144 46 46 3 3 3
 3 3 132 137 137 137 137 137 137 111 111 111 111 111 111 144 144 144 144 144
 144 144 144 144 46 3 3 3 3 3 3 221 137 137 137 137 137 135 135 135
 135 79 79 144 144 144 144 144 144 144 144 144 144 172 172 172 172 172 221 221
 221 221 137 137 137 135 135 135 135 135 135 135 144 144 144 144 144 144 144 144
 144 144 172 172 172 172 172 172 221 221 221 221 221 137 135 135 135 135 135 135
 135 144 144 144 144 144 144 144 144 144 144 172 172 172 172 172 33 33 221 221
 221 221 135 135 135 135 135 135 135 135 209 209 209 209 144 144 144 144 49 49
 172 172 172 172 172 33 33 33 221 225 72 224 135 135 135 135 135 135 173 173
 173 209 209 209 209 144 49 49 49 49 172 172 172 33 33 33 33 225 225 225
 224 224 224 135 135 215 215 173 173 173 209 209 209 209 144 49 49 49 49 49
 172 172 33 33 33 33 225 225 225 224 224 224 215 215 215 215 173 173 173 173
 209 209 209 49 49 49 49 49 49 36 36 33 33 33 33 57 57 57 141 141
 141 215 215 215 215 173 173 173 173 173 209 23 23 49 49 49 49 36 36 36
 36 36 131 57 57 57 202 202 202 202 202 215 215 215 173 173 173 173 173 159
 23 23 23 49 49 36 36 36 36 36 36 19 19 57 57 202 202 202 202 202
 215 220 220 220 220 220 159 159 159 23 23 23 23 36 36 36 36 36 36 36
 19 19 19 19 202 202 202 202 202 220 220 220 220 220 220 159 159 159 23 23
 23 36 36 36 36 36 36 36 36 36 19 19 19 202 202 202 202 202 220 220
 220 220 220 220 159 159 159 127 127 127 127 36 53 53 53 53 53 204 204 204
 204 19 202 178 178 178 178 220 220 220 220 220 220 220 159 127 127 127 127 127
 87 53 53 53 53 53 204 204 204 204 204 178 178 178 178 178 178 220 220 220
 220 220 61 61 127 127 127 127 127 87 53 53 53 53 204 204 204 204 204 244
 244 244 178 178 178 178 220 220 220 220 61 61 61 61 127 127 127 127 87 87
 87 53 216 216 204 204 204 244 244 244 244 17 17 17 124 124 124 124 124 61
 61 61 228 228 60 60 60 60 60 87 216 216 216 216 216 216 165 244 244 244
 17 17 17 124 124 124 124 124 61 228 228 228 228 60 60 60 60 60 60 216
 216 216 216 216 216 165 165 205 205 205 17 17 124 124 124 124 124 228 228 228
 228 228 60 60 60 60 60 60 216 216 216 216 216 165 165 205 205 205 205 17
 124 124 124 124 124 124 228 228 228 228 42 60 60 60 60 60 60 216 216 216
 216 216 165 165 205 205 205 205 205 157 157 157 157 124 124 228 228 228 228 42
 60 60 60 60 84 84 84 216 216 216 216 165 165 165 205 205 205 157 157 157
 157 157 157 95 42 42 42 42 42 42 60 84 84 84 84 84 71 71 71 71
 165 123 123 123 123 123 201 201 157 157 157 157 95 42 42 42 42 42 104 104
 104 84 84 84 84 71 71 71 71 123 123 123 123 123 123 201 201 201 201 201
 201 201 42 42 42 42 104 104 104 104 84 84 84 46 71 71 71 71 123 123
 123 123 123 123 201 201 201 201 201 201 201 235 235 235 235 104 104 104 104 104
 46 46 46 46 46 71 71 123 123 123 123 123 123 201 201 201 201 201 201 201
 235 235 235 235 104 104 104 104 104 46 46 46 46 46 3 3 8 94 137 123
 137 96 111 111 111 111 111 111 111 235 235 235 235 104 104 104 104 46 46 46
 46 46 3 3 3 3 137 137 137 137 137 111 111 111 111 111 111 111 237 235
 235 235 104 104 104 104 46 46 46 46 3 3 3 3 252 137 137 137 137 137
 137 111 111 111 111 111 111 237 237 235 144 144 144 144 144 46 46 46 46 3
 3 3 3 252 137 137 137 137 137 137 111 111 111 111 111 111 237 144 144 144
 144 144 144 144 144 46 46 3 3 3 3 3 252 137 137 137 137 137 135 135
 135 135 111 111 144 144 144 144 144 144 144 144 144 144 172 172 172 172 172 172
 252 252 252 252 252 137 135 135 135 135 135 67 67 144 144 144 144 144 144 144
 144 144 144 172 172 172 172 172 172 147 221 221 221 221 137 135 135 135 135 135
 135 67 144 144 144 144 144 144 144 144 144 172 172 172 172 172 172 172 33 225
 221 225 72 72 135 135 135 135 135 135 67 209 209 209 209 144 144 144 144 169
 172 172 172 172 172 172 33 33 225 225 225 72 72 72 135 135 135 135 215 173
 173 209 209 209 209 209 144 144 49 49 172 172 172 172 172 33 33 225 225 225
 225 225 72 135 135 215 215 215 215 173 209 209 209 209 209 144 49 49 49 49
 172 172 172 172 33 33 225 225 225 225 225 72 215 215 215 215 215 215 173 173
 209 209 209 209 23 49 49 49 49 49 172 172 33 33 225 225 225 225 225 225
 202 215 215 215 215 215 215 173 173 173 173 209 23 23 23 49 49 49 36 36
 36 36 33 225 225 225 225 225 202 202 202 202 215 215 215 215 173 173 173 44
 23 23 23 23 23 49 36 36 36 36 36 36 19 19 19 19 19 202 202 202
 202 215 215 215 220 220 220 220 23 23 23 23 23 23 36 36 36 36 36 36
 36 19 19 19 19 19 202 202 202 202 215 220 220 220 220 220 220 23 23 23